
     Program PWSCF v.7.4.1 starts on 17Mar2026 at 11:33:46 

     This program is part of the open-source Quantum ESPRESSO suite
     for quantum simulation of materials; please cite
         "P. Giannozzi et al., J. Phys.:Condens. Matter 21 395502 (2009);
         "P. Giannozzi et al., J. Phys.:Condens. Matter 29 465901 (2017);
         "P. Giannozzi et al., J. Chem. Phys. 152 154105 (2020);
          URL http://www.quantum-espresso.org", 
     in publications or presentations arising from this work. More details at
     http://www.quantum-espresso.org/quote

     Parallel version (MPI), running on     2 processors

     MPI processes distributed on     1 nodes
     188696 MiB available memory on the printing compute node when the environment starts

     Reading input from scf_fe2co_fm_debug.in

     Current dimensions of program PWSCF are:
     Max number of different atomic species (ntypx) = 10
     Max number of k-points (npk) =  40000
     Max angular momentum in pseudopotentials (lmaxx) =  4
     file Fe.pbesol-spn-kjpaw_psl.1.0.0.UPF: wavefunction(s)  3P 3D renormalized
     file Fe.pbesol-spn-kjpaw_psl.1.0.0.UPF: wavefunction(s)  3P 3D renormalized
     file Co.pbesol-spn-rrkjus_psl.0.3.1.UPF: wavefunction(s)  3P renormalized

     IMPORTANT: XC functional enforced from input :
     Exchange-correlation= PBESOL
                           (   1   4  10   8   0   0   0)
     Any further DFT definition will be discarded
     Please, verify this is what you really want

     Message from routine setup:
     using ibrav=0 with symmetry is DISCOURAGED, use correct ibrav instead

     R & G space division:  proc/nbgrp/npool/nimage =       2
     Subspace diagonalization in iterative solution of the eigenvalue problem:
     a serial algorithm will be used


     Parallelization info
     --------------------
     sticks:   dense  smooth     PW     G-vecs:    dense   smooth      PW
     Min         960     477    135                41654    14717    2249
     Max         961     478    136                41655    14722    2250
     Sum        1921     955    271                83309    29439    4499

     Using Slab Decomposition



     bravais-lattice index     =            0
     lattice parameter (alat)  =       7.6220  a.u.
     unit-cell volume          =     469.1943 (a.u.)^3
     number of atoms/cell      =            6
     number of atomic types    =            3
     number of electrons       =        98.00
     number of Kohn-Sham states=           59
     kinetic-energy cutoff     =      60.0000  Ry
     charge density cutoff     =     480.0000  Ry
     scf convergence threshold =      1.0E-05
     mixing beta               =       0.2500
     number of iterations used =            8  local-TF  mixing
     Exchange-correlation= PBESOL
                           (   1   4  10   8   0   0   0)

     celldm(1)=   7.621951  celldm(2)=   0.000000  celldm(3)=   0.000000
     celldm(4)=   0.000000  celldm(5)=   0.000000  celldm(6)=   0.000000

     crystal axes: (cart. coord. in units of alat)
               a(1) = (   1.000000   0.000000   0.000000 )  
               a(2) = (  -0.500000   0.866054   0.000000 )  
               a(3) = (   0.000000   0.000000   1.223515 )  

     reciprocal axes: (cart. coord. in units 2 pi/alat)
               b(1) = (  1.000000  0.577331 -0.000000 )  
               b(2) = (  0.000000  1.154662  0.000000 )  
               b(3) = (  0.000000 -0.000000  0.817317 )  


     PseudoPot. # 1 for Fe read from file:
     /sw/pkg/QuantumESPRESSO/7.4.1/pseudo/Fe.pbesol-spn-kjpaw_psl.1.0.0.UPF
     MD5 check sum: e30d5f36a6f0cb983ee41abee56170da
     Pseudo is Projector augmented-wave + core cor, Zval = 16.0
     Generated using &quot;atomic&quot; code by A. Dal Corso  v.6.3
     Shape of augmentation charge: PSQ
     Using radial grid of 1191 points,  6 beta functions with: 
                l(1) =   0
                l(2) =   0
                l(3) =   1
                l(4) =   1
                l(5) =   2
                l(6) =   2
     Q(r) pseudized with 0 coefficients 


     PseudoPot. # 2 for Fe read from file:
     /sw/pkg/QuantumESPRESSO/7.4.1/pseudo/Fe.pbesol-spn-kjpaw_psl.1.0.0.UPF
     MD5 check sum: e30d5f36a6f0cb983ee41abee56170da
     Pseudo is Projector augmented-wave + core cor, Zval = 16.0
     Generated using &quot;atomic&quot; code by A. Dal Corso  v.6.3
     Shape of augmentation charge: PSQ
     Using radial grid of 1191 points,  6 beta functions with: 
                l(1) =   0
                l(2) =   0
                l(3) =   1
                l(4) =   1
                l(5) =   2
                l(6) =   2
     Q(r) pseudized with 0 coefficients 


     PseudoPot. # 3 for Co read from file:
     /sw/pkg/QuantumESPRESSO/7.4.1/pseudo/Co.pbesol-spn-rrkjus_psl.0.3.1.UPF
     MD5 check sum: df65536841c871d28055fcb0059894d0
     Pseudo is Ultrasoft + core correction, Zval = 17.0
     Generated using &quot;atomic&quot; code by A. Dal Corso  v.6.3
     Using radial grid of 1193 points,  6 beta functions with: 
                l(1) =   0
                l(2) =   0
                l(3) =   1
                l(4) =   1
                l(5) =   2
                l(6) =   2
     Q(r) pseudized with 0 coefficients 


     atomic species   valence    mass     pseudopotential
     Fe1              16.00    55.84500     Fe( 1.00)
     Fe2              16.00    55.84500     Fe( 1.00)
     Co               17.00    58.93319     Co( 1.00)

     Starting magnetic structure 
     atomic species   magnetization
     Fe1             0.600
     Fe2             0.600
     Co              0.350

      4 Sym. Ops., with inversion, found


                                    s                        frac. trans.

      isym =  1     identity                                     

 cryst.   s( 1) = (     1          0          0      )
                  (     0          1          0      )
                  (     0          0          1      )

 cart.    s( 1) = (  1.0000000  0.0000000  0.0000000 )
                  (  0.0000000  1.0000000  0.0000000 )
                  (  0.0000000  0.0000000  1.0000000 )


      isym =  2     180 deg rotation - cart. axis [1,0,0]        

 cryst.   s( 2) = (     1          0          0      )
                  (    -1         -1          0      )
                  (     0          0         -1      )

 cart.    s( 2) = (  1.0000000  0.0000000  0.0000000 )
                  (  0.0000000 -1.0000000  0.0000000 )
                  (  0.0000000  0.0000000 -1.0000000 )


      isym =  3     inversion                                    

 cryst.   s( 3) = (    -1          0          0      )
                  (     0         -1          0      )
                  (     0          0         -1      )

 cart.    s( 3) = ( -1.0000000  0.0000000  0.0000000 )
                  (  0.0000000 -1.0000000  0.0000000 )
                  (  0.0000000  0.0000000 -1.0000000 )


      isym =  4     inv. 180 deg rotation - cart. axis [1,0,0]   

 cryst.   s( 4) = (    -1          0          0      )
                  (     1          1          0      )
                  (     0          0          1      )

 cart.    s( 4) = ( -1.0000000  0.0000000  0.0000000 )
                  (  0.0000000  1.0000000  0.0000000 )
                  (  0.0000000  0.0000000  1.0000000 )


   Cartesian axes

     site n.     atom                  positions (alat units)
         1        Fe1    tau(   1) = (  -0.0000005   0.5773696   0.8166632  )
         2        Fe1    tau(   2) = (   0.5000005   0.2886844   0.4068518  )
         3        Fe2    tau(   3) = (   0.0000000   0.0000000   0.6117575  )
         4        Fe2    tau(   4) = (   0.0000000   0.0000000   0.0000000  )
         5        Co     tau(   5) = (   0.5000005   0.2886844   1.0213120  )
         6        Co     tau(   6) = (  -0.0000005   0.5773696   0.2022030  )

   Crystallographic axes

     site n.     atom                  positions (cryst. coord.)
         1        Fe1    tau(   1) = (  0.3333330  0.6666670  0.6674730  )
         2        Fe1    tau(   2) = (  0.6666670  0.3333330  0.3325270  )
         3        Fe2    tau(   3) = (  0.0000000  0.0000000  0.5000000  )
         4        Fe2    tau(   4) = (  0.0000000  0.0000000  0.0000000  )
         5        Co     tau(   5) = (  0.6666670  0.3333330  0.8347360  )
         6        Co     tau(   6) = (  0.3333330  0.6666670  0.1652640  )

     number of k points=    17  Marzari-Vanderbilt smearing, width (Ry)=  0.0400
                       cart. coord. in units 2pi/alat
        k(    1) = (   0.0000000   0.0000000   0.0000000), wk =   0.0208333
        k(    2) = (   0.0000000   0.0000000   0.2724391), wk =   0.0416667
        k(    3) = (   0.0000000   0.2886656   0.0000000), wk =   0.0416667
        k(    4) = (   0.0000000   0.2886656   0.2724391), wk =   0.0416667
        k(    5) = (   0.0000000  -0.5773312   0.0000000), wk =   0.0208333
        k(    6) = (   0.0000000  -0.5773312   0.2724391), wk =   0.0416667
        k(    7) = (   0.2500000   0.1443328   0.0000000), wk =   0.0833333
        k(    8) = (   0.2500000   0.1443328   0.2724391), wk =   0.0833333
        k(    9) = (   0.2500000   0.4329984   0.0000000), wk =   0.0833333
        k(   10) = (   0.2500000   0.4329984   0.2724391), wk =   0.0833333
        k(   11) = (  -0.5000000  -0.2886656   0.0000000), wk =   0.0416667
        k(   12) = (  -0.5000000  -0.2886656   0.2724391), wk =   0.0833333
        k(   13) = (  -0.5000000   0.0000000   0.0000000), wk =   0.0416667
        k(   14) = (  -0.5000000   0.0000000   0.2724391), wk =   0.0833333
        k(   15) = (   0.0000000   0.2886656  -0.2724391), wk =   0.0416667
        k(   16) = (  -0.2500000   0.1443328  -0.2724391), wk =   0.0833333
        k(   17) = (  -0.2500000   0.4329984  -0.2724391), wk =   0.0833333

                       cryst. coord.
        k(    1) = (   0.0000000   0.0000000   0.0000000), wk =   0.0208333
        k(    2) = (   0.0000000   0.0000000   0.3333333), wk =   0.0416667
        k(    3) = (   0.0000000   0.2500000   0.0000000), wk =   0.0416667
        k(    4) = (   0.0000000   0.2500000   0.3333333), wk =   0.0416667
        k(    5) = (   0.0000000  -0.5000000   0.0000000), wk =   0.0208333
        k(    6) = (   0.0000000  -0.5000000   0.3333333), wk =   0.0416667
        k(    7) = (   0.2500000   0.0000000   0.0000000), wk =   0.0833333
        k(    8) = (   0.2500000   0.0000000   0.3333333), wk =   0.0833333
        k(    9) = (   0.2500000   0.2500000   0.0000000), wk =   0.0833333
        k(   10) = (   0.2500000   0.2500000   0.3333333), wk =   0.0833333
        k(   11) = (  -0.5000000   0.0000000   0.0000000), wk =   0.0416667
        k(   12) = (  -0.5000000   0.0000000   0.3333333), wk =   0.0833333
        k(   13) = (  -0.5000000   0.2500000   0.0000000), wk =   0.0416667
        k(   14) = (  -0.5000000   0.2500000   0.3333333), wk =   0.0833333
        k(   15) = (   0.0000000   0.2500000  -0.3333333), wk =   0.0416667
        k(   16) = (  -0.2500000   0.2500000  -0.3333333), wk =   0.0833333
        k(   17) = (  -0.2500000   0.5000000  -0.3333333), wk =   0.0833333

     Dense  grid:    83309 G-vectors     FFT dimensions: (  54,  54,  72)

     Smooth grid:    29439 G-vectors     FFT dimensions: (  40,  40,  45)

     Dynamical RAM for                 wfc:       1.66 MB

     Dynamical RAM for     wfc (w. buffer):      58.01 MB

     Dynamical RAM for           str. fact:       1.91 MB

     Dynamical RAM for           local pot:       0.00 MB

     Dynamical RAM for          nlocal pot:       3.03 MB

     Dynamical RAM for                qrad:       5.27 MB

     Dynamical RAM for          rho,v,vnew:       8.62 MB

     Dynamical RAM for               rhoin:       2.87 MB

     Dynamical RAM for            rho*nmix:      20.34 MB

     Dynamical RAM for           G-vectors:       2.50 MB

     Dynamical RAM for          h,s,v(r/c):       0.16 MB

     Dynamical RAM for          <psi|beta>:       0.10 MB

     Dynamical RAM for      wfcinit/wfcrot:       3.39 MB

     Dynamical RAM for           addusdens:     120.13 MB

     Estimated static dynamical RAM per process >      89.56 MB

     Estimated max dynamical RAM per process >     230.02 MB

     Estimated total dynamical RAM >     460.05 MB

     Check: negative core charge=   -0.000011
     Generating pointlists ...
     new r_m :   0.2512 (alat units)  1.9149 (a.u.) for type    1
     new r_m :   0.2523 (alat units)  1.9233 (a.u.) for type    2
     new r_m :   0.2512 (alat units)  1.9149 (a.u.) for type    3

     Initial potential from superposition of free atoms

     starting charge      97.9979, renormalised to      98.0000
     Starting wfcs are   60 randomized atomic wfcs
     Checking if some PAW data can be deallocated... 
       PAW data deallocated on    1 nodes for type:  1

     total cpu time spent up to now is        4.4 secs

     Self-consistent Calculation

     iteration #  1     ecut=    60.00 Ry     beta= 0.25
     CG style diagonalization

---- Real-time Memory Report at c_bands before calling an iterative solver
           358 MiB given to the printing process from OS
             0 MiB allocation reported by mallinfo(arena+hblkhd)
        188588 MiB available memory on the node where the printing process lives
------------------
     ethr =  1.00E-02,  avg # of iterations =  2.4

     total cpu time spent up to now is       12.5 secs

     total energy              =   -1887.35848077 Ry
     estimated scf accuracy    <       6.84684127 Ry

     total magnetization       =    17.46 Bohr mag/cell
     absolute magnetization    =    18.11 Bohr mag/cell

     iteration #  2     ecut=    60.00 Ry     beta= 0.25
     CG style diagonalization

---- Real-time Memory Report at c_bands before calling an iterative solver
           434 MiB given to the printing process from OS
             0 MiB allocation reported by mallinfo(arena+hblkhd)
        188196 MiB available memory on the node where the printing process lives
------------------
     ethr =  6.99E-03,  avg # of iterations =  3.2

     negative rho (up, down):  0.000E+00 5.513E-04

     total cpu time spent up to now is       21.8 secs

     total energy              =   -1888.97758118 Ry
     estimated scf accuracy    <       2.95606331 Ry

     total magnetization       =    17.80 Bohr mag/cell
     absolute magnetization    =    18.14 Bohr mag/cell

     iteration #  3     ecut=    60.00 Ry     beta= 0.25
     CG style diagonalization

---- Real-time Memory Report at c_bands before calling an iterative solver
           434 MiB given to the printing process from OS
             0 MiB allocation reported by mallinfo(arena+hblkhd)
        188414 MiB available memory on the node where the printing process lives
------------------
     ethr =  3.02E-03,  avg # of iterations =  3.1

     negative rho (up, down):  0.000E+00 1.818E-03

     total cpu time spent up to now is       30.3 secs

     total energy              =   -1889.96022298 Ry
     estimated scf accuracy    <       1.86456588 Ry

     total magnetization       =    16.98 Bohr mag/cell
     absolute magnetization    =    18.11 Bohr mag/cell

     iteration #  4     ecut=    60.00 Ry     beta= 0.25
     CG style diagonalization

---- Real-time Memory Report at c_bands before calling an iterative solver
           435 MiB given to the printing process from OS
             0 MiB allocation reported by mallinfo(arena+hblkhd)
        187862 MiB available memory on the node where the printing process lives
------------------
     ethr =  1.90E-03,  avg # of iterations =  3.1

     negative rho (up, down):  0.000E+00 2.160E-03

     total cpu time spent up to now is       39.3 secs

     total energy              =   -1890.26315680 Ry
     estimated scf accuracy    <       1.14750204 Ry

     total magnetization       =    14.99 Bohr mag/cell
     absolute magnetization    =    16.33 Bohr mag/cell

     iteration #  5     ecut=    60.00 Ry     beta= 0.25
     CG style diagonalization

---- Real-time Memory Report at c_bands before calling an iterative solver
           436 MiB given to the printing process from OS
             0 MiB allocation reported by mallinfo(arena+hblkhd)
        189142 MiB available memory on the node where the printing process lives
------------------
     ethr =  1.17E-03,  avg # of iterations =  3.1

     negative rho (up, down):  0.000E+00 1.616E-03

     total cpu time spent up to now is       47.8 secs

     total energy              =   -1890.32396659 Ry
     estimated scf accuracy    <       0.12710733 Ry

     total magnetization       =    14.46 Bohr mag/cell
     absolute magnetization    =    15.90 Bohr mag/cell

     iteration #  6     ecut=    60.00 Ry     beta= 0.25
     CG style diagonalization

---- Real-time Memory Report at c_bands before calling an iterative solver
           437 MiB given to the printing process from OS
             0 MiB allocation reported by mallinfo(arena+hblkhd)
        188636 MiB available memory on the node where the printing process lives
------------------
     ethr =  1.30E-04,  avg # of iterations =  4.0

     negative rho (up, down):  0.000E+00 2.066E-03

     total cpu time spent up to now is       58.7 secs

     total energy              =   -1890.37111073 Ry
     estimated scf accuracy    <       0.02646898 Ry

     total magnetization       =    14.26 Bohr mag/cell
     absolute magnetization    =    15.48 Bohr mag/cell

     iteration #  7     ecut=    60.00 Ry     beta= 0.25
     CG style diagonalization

---- Real-time Memory Report at c_bands before calling an iterative solver
           438 MiB given to the printing process from OS
             0 MiB allocation reported by mallinfo(arena+hblkhd)
        188449 MiB available memory on the node where the printing process lives
------------------
     c_bands:  1 eigenvalues not converged
     c_bands:  1 eigenvalues not converged
     ethr =  2.70E-05,  avg # of iterations =  4.5

     negative rho (up, down):  0.000E+00 9.260E-04

     total cpu time spent up to now is       71.2 secs

     total energy              =   -1890.37970107 Ry
     estimated scf accuracy    <       0.06741308 Ry

     total magnetization       =    14.41 Bohr mag/cell
     absolute magnetization    =    15.49 Bohr mag/cell

     iteration #  8     ecut=    60.00 Ry     beta= 0.25
     CG style diagonalization

---- Real-time Memory Report at c_bands before calling an iterative solver
           440 MiB given to the printing process from OS
             0 MiB allocation reported by mallinfo(arena+hblkhd)
        188653 MiB available memory on the node where the printing process lives
------------------
     ethr =  2.70E-05,  avg # of iterations =  3.7

     negative rho (up, down):  0.000E+00 8.297E-04

     total cpu time spent up to now is       81.5 secs

     total energy              =   -1890.38702065 Ry
     estimated scf accuracy    <       0.02220136 Ry

     total magnetization       =    14.14 Bohr mag/cell
     absolute magnetization    =    15.18 Bohr mag/cell

     iteration #  9     ecut=    60.00 Ry     beta= 0.25
     CG style diagonalization

---- Real-time Memory Report at c_bands before calling an iterative solver
           440 MiB given to the printing process from OS
             0 MiB allocation reported by mallinfo(arena+hblkhd)
        188589 MiB available memory on the node where the printing process lives
------------------
     c_bands:  1 eigenvalues not converged
     c_bands:  1 eigenvalues not converged
     c_bands:  1 eigenvalues not converged
     c_bands:  1 eigenvalues not converged
     ethr =  2.27E-05,  avg # of iterations =  3.4

     negative rho (up, down):  0.000E+00 8.008E-04

     total cpu time spent up to now is       90.8 secs

     total energy              =   -1890.39013840 Ry
     estimated scf accuracy    <       0.00378957 Ry

     total magnetization       =    14.08 Bohr mag/cell
     absolute magnetization    =    15.07 Bohr mag/cell

     iteration # 10     ecut=    60.00 Ry     beta= 0.25
     CG style diagonalization

---- Real-time Memory Report at c_bands before calling an iterative solver
           441 MiB given to the printing process from OS
             0 MiB allocation reported by mallinfo(arena+hblkhd)
        188051 MiB available memory on the node where the printing process lives
------------------
     c_bands:  1 eigenvalues not converged
     c_bands:  1 eigenvalues not converged
     c_bands:  1 eigenvalues not converged
     c_bands:  1 eigenvalues not converged
     c_bands:  1 eigenvalues not converged
     c_bands:  1 eigenvalues not converged
     c_bands:  1 eigenvalues not converged
     c_bands:  1 eigenvalues not converged
     c_bands:  1 eigenvalues not converged
     c_bands:  1 eigenvalues not converged
     c_bands:  1 eigenvalues not converged
     c_bands:  1 eigenvalues not converged
     c_bands:  1 eigenvalues not converged
     ethr =  3.87E-06,  avg # of iterations =  4.2

     negative rho (up, down):  0.000E+00 7.969E-04

     total cpu time spent up to now is      102.6 secs

     total energy              =   -1890.39190967 Ry
     estimated scf accuracy    <       0.00113174 Ry

     total magnetization       =    14.08 Bohr mag/cell
     absolute magnetization    =    15.00 Bohr mag/cell

     iteration # 11     ecut=    60.00 Ry     beta= 0.25
     CG style diagonalization

---- Real-time Memory Report at c_bands before calling an iterative solver
           441 MiB given to the printing process from OS
             0 MiB allocation reported by mallinfo(arena+hblkhd)
        188444 MiB available memory on the node where the printing process lives
------------------
     c_bands:  1 eigenvalues not converged
     c_bands:  1 eigenvalues not converged
     c_bands:  1 eigenvalues not converged
     c_bands:  1 eigenvalues not converged
     c_bands:  1 eigenvalues not converged
     c_bands:  1 eigenvalues not converged
     c_bands:  1 eigenvalues not converged
     c_bands:  1 eigenvalues not converged
     ethr =  1.15E-06,  avg # of iterations =  4.8

     negative rho (up, down):  0.000E+00 7.312E-04

     total cpu time spent up to now is      115.1 secs

     total energy              =   -1890.39222858 Ry
     estimated scf accuracy    <       0.00949486 Ry

     total magnetization       =    14.08 Bohr mag/cell
     absolute magnetization    =    14.95 Bohr mag/cell

     iteration # 12     ecut=    60.00 Ry     beta= 0.25
     CG style diagonalization

---- Real-time Memory Report at c_bands before calling an iterative solver
           443 MiB given to the printing process from OS
             0 MiB allocation reported by mallinfo(arena+hblkhd)
        189565 MiB available memory on the node where the printing process lives
------------------
     c_bands:  1 eigenvalues not converged
     c_bands:  1 eigenvalues not converged
     c_bands:  1 eigenvalues not converged
     ethr =  1.15E-06,  avg # of iterations =  4.2

     negative rho (up, down):  0.000E+00 7.171E-04

     total cpu time spent up to now is      126.1 secs

     total energy              =   -1890.39336333 Ry
     estimated scf accuracy    <       0.00229184 Ry

     total magnetization       =    14.03 Bohr mag/cell
     absolute magnetization    =    14.88 Bohr mag/cell

     iteration # 13     ecut=    60.00 Ry     beta= 0.25
     CG style diagonalization

---- Real-time Memory Report at c_bands before calling an iterative solver
           444 MiB given to the printing process from OS
             0 MiB allocation reported by mallinfo(arena+hblkhd)
        189062 MiB available memory on the node where the printing process lives
------------------
     c_bands:  1 eigenvalues not converged
     ethr =  1.15E-06,  avg # of iterations =  3.4

     negative rho (up, down):  0.000E+00 7.122E-04

     total cpu time spent up to now is      134.9 secs

     total energy              =   -1890.39360104 Ry
     estimated scf accuracy    <       0.00008965 Ry

     total magnetization       =    14.02 Bohr mag/cell
     absolute magnetization    =    14.85 Bohr mag/cell

     iteration # 14     ecut=    60.00 Ry     beta= 0.25
     CG style diagonalization

---- Real-time Memory Report at c_bands before calling an iterative solver
           446 MiB given to the printing process from OS
             0 MiB allocation reported by mallinfo(arena+hblkhd)
        188659 MiB available memory on the node where the printing process lives
------------------
     ethr =  9.15E-08,  avg # of iterations =  5.3

     negative rho (up, down):  0.000E+00 7.084E-04

     total cpu time spent up to now is      148.1 secs

     total energy              =   -1890.39374550 Ry
     estimated scf accuracy    <       0.00004027 Ry

     total magnetization       =    14.02 Bohr mag/cell
     absolute magnetization    =    14.83 Bohr mag/cell

     iteration # 15     ecut=    60.00 Ry     beta= 0.25
     CG style diagonalization

---- Real-time Memory Report at c_bands before calling an iterative solver
           446 MiB given to the printing process from OS
             0 MiB allocation reported by mallinfo(arena+hblkhd)
        188891 MiB available memory on the node where the printing process lives
------------------
     ethr =  4.11E-08,  avg # of iterations =  4.9

     negative rho (up, down):  0.000E+00 7.014E-04

     total cpu time spent up to now is      160.7 secs

     total energy              =   -1890.39379278 Ry
     estimated scf accuracy    <       0.00002548 Ry

     total magnetization       =    14.02 Bohr mag/cell
     absolute magnetization    =    14.82 Bohr mag/cell

     iteration # 16     ecut=    60.00 Ry     beta= 0.25
     CG style diagonalization

---- Real-time Memory Report at c_bands before calling an iterative solver
           446 MiB given to the printing process from OS
             0 MiB allocation reported by mallinfo(arena+hblkhd)
        189130 MiB available memory on the node where the printing process lives
------------------
     ethr =  2.60E-08,  avg # of iterations =  4.3

     negative rho (up, down):  0.000E+00 7.038E-04

     total cpu time spent up to now is      171.8 secs

     total energy              =   -1890.39381642 Ry
     estimated scf accuracy    <       0.00001139 Ry

     total magnetization       =    14.01 Bohr mag/cell
     absolute magnetization    =    14.80 Bohr mag/cell

     iteration # 17     ecut=    60.00 Ry     beta= 0.25
     CG style diagonalization

---- Real-time Memory Report at c_bands before calling an iterative solver
           446 MiB given to the printing process from OS
             0 MiB allocation reported by mallinfo(arena+hblkhd)
        189789 MiB available memory on the node where the printing process lives
------------------
     c_bands:  1 eigenvalues not converged
     ethr =  1.16E-08,  avg # of iterations =  4.9

     negative rho (up, down):  0.000E+00 7.014E-04

     Magnetic moment per site  (integrated on atomic sphere of radius R)
     atom   1 (R=0.251)  charge= 14.3420  magn=  2.6622
     atom   2 (R=0.251)  charge= 14.3420  magn=  2.6622
     atom   3 (R=0.252)  charge= 14.4180  magn=  2.4376
     atom   4 (R=0.252)  charge= 14.3664  magn=  2.7279
     atom   5 (R=0.251)  charge= 15.5004  magn=  1.9101
     atom   6 (R=0.251)  charge= 15.5004  magn=  1.9101

     total cpu time spent up to now is      183.7 secs

     End of self-consistent calculation

 ------ SPIN UP ------------


          k = 0.0000 0.0000 0.0000 (  3695 PWs)   bands (ev):

   -78.5463 -78.5419 -70.5243 -70.4757 -70.4672 -69.9765 -41.8423 -41.8423
   -41.8401 -41.8272 -41.8272 -41.8248 -36.7206 -36.7205 -36.6797 -36.6688
   -36.6384 -36.6384 -36.6376 -36.6336 -36.6336 -36.1320 -36.1317 -36.1316
     8.9087  12.6305  12.6306  13.5899  13.5977  13.6088  13.7761  13.9193
    13.9193  14.0158  14.0158  14.1720  14.1722  14.2894  14.2896  14.9708
    14.9843  14.9845  15.9885  15.9886  16.0350  16.0350  16.3501  16.3501
    16.4516  16.4516  16.6380  16.6381  17.2074  17.2725  17.2727  18.9670
    19.2979  23.7644  23.8267

     occupation numbers 
     1.0000   1.0000   1.0000   1.0000   1.0000   1.0000   1.0000   1.0000
     1.0000   1.0000   1.0000   1.0000   1.0000   1.0000   1.0000   1.0000
     1.0000   1.0000   1.0000   1.0000   1.0000   1.0000   1.0000   1.0000
     1.0000   1.0000   1.0000   1.0000   1.0000   1.0000   1.0000   1.0000
     1.0000   1.0000   1.0000   1.0000   1.0000   1.0000   1.0000   1.0000
     1.0000   1.0000   1.0011   1.0011   1.0016   1.0016   1.0141   1.0141
     1.0243   1.0243   1.0525   1.0525   0.9623   0.9012   0.9010   0.0000
     0.0000   0.0000   0.0000

          k = 0.0000 0.0000 0.2724 (  3695 PWs)   bands (ev):

   -78.5462 -78.5419 -70.5237 -70.4763 -70.4669 -69.9768 -41.8422 -41.8421
   -41.8391 -41.8273 -41.8273 -41.8234 -36.7196 -36.7196 -36.6783 -36.6511
   -36.6388 -36.6388 -36.6356 -36.6341 -36.6341 -36.1592 -36.1317 -36.1317
     9.6437  11.5767  12.9246  12.9247  13.6451  13.6453  13.7984  13.9565
    13.9565  14.1709  14.1710  14.2515  14.3840  14.3840  14.6055  14.8611
    14.8613  15.4152  15.9317  15.9317  15.9710  15.9710  16.2468  16.4491
    16.4491  16.5294  16.5294  16.6609  16.6610  16.7863  17.1468  17.1470
    23.2010  24.3362  26.2183

     occupation numbers 
     1.0000   1.0000   1.0000   1.0000   1.0000   1.0000   1.0000   1.0000
     1.0000   1.0000   1.0000   1.0000   1.0000   1.0000   1.0000   1.0000
     1.0000   1.0000   1.0000   1.0000   1.0000   1.0000   1.0000   1.0000
     1.0000   1.0000   1.0000   1.0000   1.0000   1.0000   1.0000   1.0000
     1.0000   1.0000   1.0000   1.0000   1.0000   1.0000   1.0000   1.0000
     1.0000   1.0000   1.0007   1.0007   1.0009   1.0009   1.0075   1.0240
     1.0240   1.0348   1.0348   1.0565   1.0565   1.0761   1.0077   1.0076
     0.0000   0.0000   0.0000

          k = 0.0000 0.2887 0.0000 (  3680 PWs)   bands (ev):

   -78.5457 -78.5424 -70.5239 -70.4741 -70.4680 -69.9775 -41.8443 -41.8443
   -41.8422 -41.8257 -41.8245 -41.8235 -36.7222 -36.7219 -36.6931 -36.6664
   -36.6548 -36.6470 -36.6353 -36.6187 -36.6132 -36.1380 -36.1280 -36.1279
     9.7317  12.8373  12.9445  12.9561  13.0178  13.2860  13.3439  13.8939
    13.9836  14.0173  14.0784  14.5640  14.6032  14.8247  14.8554  15.2431
    15.3357  15.5164  15.8443  15.9705  16.0054  16.0882  16.1143  16.1854
    16.3397  16.4736  16.6048  16.6655  16.6812  16.9538  17.1754  18.8922
    19.3772  19.4423  20.2952

     occupation numbers 
     1.0000   1.0000   1.0000   1.0000   1.0000   1.0000   1.0000   1.0000
     1.0000   1.0000   1.0000   1.0000   1.0000   1.0000   1.0000   1.0000
     1.0000   1.0000   1.0000   1.0000   1.0000   1.0000   1.0000   1.0000
     1.0000   1.0000   1.0000   1.0000   1.0000   1.0000   1.0000   1.0000
     1.0000   1.0000   1.0000   1.0000   1.0000   1.0000   1.0000   1.0000
     1.0000   1.0000   1.0003   1.0009   1.0012   1.0024   1.0029   1.0049
     1.0133   1.0270   1.0468   1.0572   1.0599   1.0796   0.9877   0.0001
     0.0000   0.0000   0.0000

          k = 0.0000 0.2887 0.2724 (  3686 PWs)   bands (ev):

   -78.5456 -78.5424 -70.5235 -70.4745 -70.4679 -69.9778 -41.8442 -41.8437
   -41.8409 -41.8259 -41.8242 -41.8229 -36.7217 -36.7203 -36.6830 -36.6608
   -36.6574 -36.6438 -36.6286 -36.6188 -36.6178 -36.1552 -36.1369 -36.1282
    10.4077  12.0776  13.1134  13.2803  13.3402  13.4076  13.4320  13.7742
    13.8784  13.8850  14.3877  14.6125  14.6361  14.7740  14.9306  15.0271
    15.0374  15.6658  15.7106  15.7984  15.8676  15.9425  15.9944  16.1313
    16.2612  16.3631  16.4580  16.5058  16.6140  16.8909  16.9231  17.2847
    19.6326  21.3638  21.6244

     occupation numbers 
     1.0000   1.0000   1.0000   1.0000   1.0000   1.0000   1.0000   1.0000
     1.0000   1.0000   1.0000   1.0000   1.0000   1.0000   1.0000   1.0000
     1.0000   1.0000   1.0000   1.0000   1.0000   1.0000   1.0000   1.0000
     1.0000   1.0000   1.0000   1.0000   1.0000   1.0000   1.0000   1.0000
     1.0000   1.0000   1.0000   1.0000   1.0000   1.0000   1.0000   1.0000
     1.0000   1.0000   1.0001   1.0002   1.0004   1.0007   1.0011   1.0033
     1.0082   1.0152   1.0251   1.0313   1.0484   1.0833   1.0824   0.8885
     0.0000   0.0000   0.0000

          k = 0.0000-0.5773 0.0000 (  3666 PWs)   bands (ev):

   -78.5447 -78.5433 -70.5236 -70.4718 -70.4697 -69.9784 -41.8460 -41.8450
   -41.8443 -41.8244 -41.8233 -41.8219 -36.7235 -36.7229 -36.7008 -36.6624
   -36.6610 -36.6599 -36.6260 -36.6123 -36.6057 -36.1440 -36.1245 -36.1237
    11.7642  11.8160  12.4589  12.5364  13.5282  13.5982  13.6215  13.7034
    13.9237  13.9325  14.3295  14.4042  14.5101  14.6019  14.6937  14.8858
    15.7513  15.8356  16.0029  16.0774  16.1638  16.1999  16.2506  16.4344
    16.4545  16.5762  16.5879  16.7730  16.8475  17.1057  17.5330  17.5692
    17.7410  17.7529  21.1334

     occupation numbers 
     1.0000   1.0000   1.0000   1.0000   1.0000   1.0000   1.0000   1.0000
     1.0000   1.0000   1.0000   1.0000   1.0000   1.0000   1.0000   1.0000
     1.0000   1.0000   1.0000   1.0000   1.0000   1.0000   1.0000   1.0000
     1.0000   1.0000   1.0000   1.0000   1.0000   1.0000   1.0000   1.0000
     1.0000   1.0000   1.0000   1.0000   1.0000   1.0000   1.0000   1.0000
     1.0001   1.0003   1.0012   1.0022   1.0042   1.0055   1.0077   1.0223
     1.0246   1.0421   1.0440   1.0744   1.0820   1.0320   0.5695   0.5197
     0.3043   0.2914   0.0000

          k = 0.0000-0.5773 0.2724 (  3684 PWs)   bands (ev):

   -78.5446 -78.5433 -70.5233 -70.4719 -70.4698 -69.9788 -41.8458 -41.8442
   -41.8430 -41.8247 -41.8227 -41.8218 -36.7247 -36.7195 -36.6836 -36.6695
   -36.6595 -36.6548 -36.6254 -36.6095 -36.6084 -36.1544 -36.1388 -36.1247
    12.2417  12.3225  12.6113  12.9135  13.0695  13.7477  13.9278  13.9768
    14.0710  14.1010  14.2220  14.2399  14.2835  14.5803  15.0787  15.0906
    15.3381  15.3626  15.5651  15.5993  15.9309  15.9912  16.0954  16.1145
    16.2337  16.3245  16.4406  16.6642  16.6676  17.0163  17.1653  17.3323
    17.9626  18.1132  19.9683

     occupation numbers 
     1.0000   1.0000   1.0000   1.0000   1.0000   1.0000   1.0000   1.0000
     1.0000   1.0000   1.0000   1.0000   1.0000   1.0000   1.0000   1.0000
     1.0000   1.0000   1.0000   1.0000   1.0000   1.0000   1.0000   1.0000
     1.0000   1.0000   1.0000   1.0000   1.0000   1.0000   1.0000   1.0000
     1.0000   1.0000   1.0000   1.0000   1.0000   1.0000   1.0000   1.0000
     1.0000   1.0000   1.0000   1.0000   1.0007   1.0011   1.0026   1.0030
     1.0069   1.0122   1.0230   1.0570   1.0576   1.0675   0.9950   0.8351
     0.1177   0.0518   0.0000

          k = 0.2500 0.1443 0.0000 (  3680 PWs)   bands (ev):

   -78.5457 -78.5424 -70.5239 -70.4741 -70.4680 -69.9775 -41.8443 -41.8443
   -41.8422 -41.8257 -41.8245 -41.8235 -36.7222 -36.7219 -36.6931 -36.6664
   -36.6548 -36.6471 -36.6352 -36.6187 -36.6132 -36.1380 -36.1280 -36.1279
     9.7317  12.8373  12.9446  12.9561  13.0178  13.2860  13.3439  13.8940
    13.9836  14.0174  14.0784  14.5641  14.6032  14.8247  14.8556  15.2430
    15.3356  15.5163  15.8443  15.9704  16.0054  16.0882  16.1143  16.1854
    16.3397  16.4735  16.6049  16.6655  16.6812  16.9537  17.1754  18.8920
    19.3774  19.4424  20.2950

     occupation numbers 
     1.0000   1.0000   1.0000   1.0000   1.0000   1.0000   1.0000   1.0000
     1.0000   1.0000   1.0000   1.0000   1.0000   1.0000   1.0000   1.0000
     1.0000   1.0000   1.0000   1.0000   1.0000   1.0000   1.0000   1.0000
     1.0000   1.0000   1.0000   1.0000   1.0000   1.0000   1.0000   1.0000
     1.0000   1.0000   1.0000   1.0000   1.0000   1.0000   1.0000   1.0000
     1.0000   1.0000   1.0003   1.0009   1.0012   1.0024   1.0029   1.0049
     1.0133   1.0270   1.0468   1.0572   1.0599   1.0796   0.9877   0.0001
     0.0000   0.0000   0.0000

          k = 0.2500 0.1443 0.2724 (  3686 PWs)   bands (ev):

   -78.5456 -78.5424 -70.5235 -70.4745 -70.4679 -69.9778 -41.8441 -41.8437
   -41.8408 -41.8259 -41.8244 -41.8227 -36.7205 -36.7187 -36.6757 -36.6658
   -36.6612 -36.6526 -36.6338 -36.6157 -36.6082 -36.1556 -36.1366 -36.1281
    10.4182  11.9340  13.0799  13.1894  13.2419  13.5984  13.8528  13.9207
    14.0926  14.1661  14.2270  14.2891  14.3574  14.7028  14.8989  15.0048
    15.0380  15.4022  15.4890  15.8111  16.0094  16.0472  16.1205  16.1613
    16.2474  16.4185  16.4210  16.5037  16.6337  16.7558  16.8954  17.3759
    20.2802  21.1017  21.2608

     occupation numbers 
     1.0000   1.0000   1.0000   1.0000   1.0000   1.0000   1.0000   1.0000
     1.0000   1.0000   1.0000   1.0000   1.0000   1.0000   1.0000   1.0000
     1.0000   1.0000   1.0000   1.0000   1.0000   1.0000   1.0000   1.0000
     1.0000   1.0000   1.0000   1.0000   1.0000   1.0000   1.0000   1.0000
     1.0000   1.0000   1.0000   1.0000   1.0000   1.0000   1.0000   1.0000
     1.0000   1.0000   1.0000   1.0002   1.0013   1.0018   1.0031   1.0042
     1.0075   1.0205   1.0208   1.0310   1.0517   1.0720   1.0833   0.7817
     0.0000   0.0000   0.0000

          k = 0.2500 0.4330 0.0000 (  3691 PWs)   bands (ev):

   -78.5447 -78.5433 -70.5237 -70.4721 -70.4696 -69.9785 -41.8457 -41.8452
   -41.8443 -41.8249 -41.8230 -41.8223 -36.7223 -36.7221 -36.6955 -36.6754
   -36.6681 -36.6441 -36.6297 -36.6173 -36.6013 -36.1377 -36.1303 -36.1239
    11.1420  12.5012  12.5464  12.9104  12.9227  13.1940  13.6999  14.0399
    14.1058  14.2381  14.2900  14.4576  14.8385  14.8621  14.9876  15.2953
    15.3348  15.4319  15.8439  15.9054  15.9215  15.9763  16.0209  16.1409
    16.1556  16.2623  16.5681  16.5736  17.0741  17.1395  17.4631  17.5949
    17.5969  19.5425  19.5896

     occupation numbers 
     1.0000   1.0000   1.0000   1.0000   1.0000   1.0000   1.0000   1.0000
     1.0000   1.0000   1.0000   1.0000   1.0000   1.0000   1.0000   1.0000
     1.0000   1.0000   1.0000   1.0000   1.0000   1.0000   1.0000   1.0000
     1.0000   1.0000   1.0000   1.0000   1.0000   1.0000   1.0000   1.0000
     1.0000   1.0000   1.0000   1.0000   1.0000   1.0000   1.0000   1.0000
     1.0000   1.0000   1.0003   1.0005   1.0006   1.0010   1.0014   1.0036
     1.0040   1.0083   1.0408   1.0416   1.0472   1.0124   0.6661   0.4850
     0.4823   0.0000   0.0000

          k = 0.2500 0.4330 0.2724 (  3678 PWs)   bands (ev):

   -78.5447 -78.5433 -70.5233 -70.4721 -70.4695 -69.9788 -41.8449 -41.8448
   -41.8430 -41.8249 -41.8224 -41.8222 -36.7251 -36.7219 -36.6790 -36.6704
   -36.6629 -36.6381 -36.6340 -36.6184 -36.6056 -36.1509 -36.1379 -36.1283
    11.7167  12.6466  12.9045  13.0053  13.2578  13.4045  13.6928  14.0385
    14.0672  14.4224  14.4368  14.4739  14.6315  14.6485  14.6862  14.7597
    14.8466  15.0749  15.6624  15.7767  15.8298  15.9642  16.0679  16.1403
    16.3001  16.4073  16.5886  16.7345  16.8097  16.9258  17.0884  17.3318
    18.0795  18.6590  20.0534

     occupation numbers 
     1.0000   1.0000   1.0000   1.0000   1.0000   1.0000   1.0000   1.0000
     1.0000   1.0000   1.0000   1.0000   1.0000   1.0000   1.0000   1.0000
     1.0000   1.0000   1.0000   1.0000   1.0000   1.0000   1.0000   1.0000
     1.0000   1.0000   1.0000   1.0000   1.0000   1.0000   1.0000   1.0000
     1.0000   1.0000   1.0000   1.0000   1.0000   1.0000   1.0000   1.0000
     1.0000   1.0000   1.0000   1.0002   1.0003   1.0009   1.0021   1.0036
     1.0105   1.0194   1.0441   1.0687   1.0788   1.0822   1.0407   0.8356
     0.0630   0.0008   0.0000

          k =-0.5000-0.2887 0.0000 (  3666 PWs)   bands (ev):

   -78.5447 -78.5433 -70.5236 -70.4718 -70.4697 -69.9784 -41.8460 -41.8450
   -41.8443 -41.8244 -41.8234 -41.8218 -36.7235 -36.7228 -36.7007 -36.6624
   -36.6610 -36.6599 -36.6260 -36.6123 -36.6057 -36.1441 -36.1245 -36.1237
    11.7644  11.8160  12.4589  12.5364  13.5282  13.5982  13.6215  13.7033
    13.9238  13.9326  14.3296  14.4042  14.5101  14.6018  14.6936  14.8858
    15.7513  15.8356  16.0028  16.0774  16.1638  16.1998  16.2505  16.4343
    16.4544  16.5762  16.5879  16.7730  16.8475  17.1057  17.5329  17.5693
    17.7406  17.7530  21.1988

     occupation numbers 
     1.0000   1.0000   1.0000   1.0000   1.0000   1.0000   1.0000   1.0000
     1.0000   1.0000   1.0000   1.0000   1.0000   1.0000   1.0000   1.0000
     1.0000   1.0000   1.0000   1.0000   1.0000   1.0000   1.0000   1.0000
     1.0000   1.0000   1.0000   1.0000   1.0000   1.0000   1.0000   1.0000
     1.0000   1.0000   1.0000   1.0000   1.0000   1.0000   1.0000   1.0000
     1.0001   1.0003   1.0012   1.0022   1.0042   1.0055   1.0077   1.0223
     1.0246   1.0421   1.0440   1.0744   1.0820   1.0320   0.5697   0.5196
     0.3048   0.2912   0.0000

          k =-0.5000-0.2887 0.2724 (  3684 PWs)   bands (ev):

   -78.5447 -78.5433 -70.5233 -70.4719 -70.4698 -69.9788 -41.8458 -41.8442
   -41.8430 -41.8247 -41.8227 -41.8217 -36.7247 -36.7195 -36.6836 -36.6695
   -36.6595 -36.6548 -36.6254 -36.6095 -36.6084 -36.1545 -36.1387 -36.1247
    12.2418  12.3226  12.6114  12.9135  13.0696  13.7478  13.9278  13.9769
    14.0710  14.1010  14.2221  14.2399  14.2834  14.5803  15.0786  15.0905
    15.3380  15.3626  15.5651  15.5993  15.9309  15.9912  16.0954  16.1145
    16.2337  16.3245  16.4405  16.6642  16.6676  17.0164  17.1652  17.3324
    17.9627  18.1135  19.9686

     occupation numbers 
     1.0000   1.0000   1.0000   1.0000   1.0000   1.0000   1.0000   1.0000
     1.0000   1.0000   1.0000   1.0000   1.0000   1.0000   1.0000   1.0000
     1.0000   1.0000   1.0000   1.0000   1.0000   1.0000   1.0000   1.0000
     1.0000   1.0000   1.0000   1.0000   1.0000   1.0000   1.0000   1.0000
     1.0000   1.0000   1.0000   1.0000   1.0000   1.0000   1.0000   1.0000
     1.0000   1.0000   1.0000   1.0000   1.0007   1.0011   1.0026   1.0030
     1.0069   1.0122   1.0230   1.0570   1.0576   1.0674   0.9951   0.8349
     0.1176   0.0517   0.0000

          k =-0.5000 0.0000 0.0000 (  3691 PWs)   bands (ev):

   -78.5447 -78.5433 -70.5237 -70.4721 -70.4696 -69.9785 -41.8457 -41.8452
   -41.8443 -41.8249 -41.8230 -41.8223 -36.7223 -36.7221 -36.6955 -36.6753
   -36.6682 -36.6441 -36.6297 -36.6173 -36.6013 -36.1377 -36.1303 -36.1238
    11.1421  12.5013  12.5463  12.9104  12.9227  13.1941  13.6999  14.0399
    14.1058  14.2381  14.2900  14.4576  14.8386  14.8621  14.9876  15.2952
    15.3347  15.4318  15.8439  15.9054  15.9215  15.9763  16.0209  16.1409
    16.1555  16.2623  16.5681  16.5736  17.0741  17.1394  17.4631  17.5948
    17.5969  19.5426  19.5896

     occupation numbers 
     1.0000   1.0000   1.0000   1.0000   1.0000   1.0000   1.0000   1.0000
     1.0000   1.0000   1.0000   1.0000   1.0000   1.0000   1.0000   1.0000
     1.0000   1.0000   1.0000   1.0000   1.0000   1.0000   1.0000   1.0000
     1.0000   1.0000   1.0000   1.0000   1.0000   1.0000   1.0000   1.0000
     1.0000   1.0000   1.0000   1.0000   1.0000   1.0000   1.0000   1.0000
     1.0000   1.0000   1.0003   1.0005   1.0006   1.0010   1.0014   1.0036
     1.0040   1.0083   1.0408   1.0416   1.0472   1.0124   0.6662   0.4851
     0.4822   0.0000   0.0000

          k =-0.5000 0.0000 0.2724 (  3678 PWs)   bands (ev):

   -78.5447 -78.5433 -70.5233 -70.4721 -70.4695 -69.9788 -41.8449 -41.8447
   -41.8430 -41.8249 -41.8224 -41.8222 -36.7251 -36.7219 -36.6790 -36.6704
   -36.6629 -36.6382 -36.6340 -36.6184 -36.6056 -36.1509 -36.1379 -36.1283
    11.7168  12.6467  12.9045  13.0053  13.2579  13.4045  13.6929  14.0385
    14.0672  14.4225  14.4368  14.4740  14.6315  14.6486  14.6862  14.7597
    14.8465  15.0748  15.6623  15.7767  15.8298  15.9642  16.0679  16.1403
    16.3000  16.4073  16.5885  16.7345  16.8097  16.9257  17.0884  17.3319
    18.0796  18.6588  20.0532

     occupation numbers 
     1.0000   1.0000   1.0000   1.0000   1.0000   1.0000   1.0000   1.0000
     1.0000   1.0000   1.0000   1.0000   1.0000   1.0000   1.0000   1.0000
     1.0000   1.0000   1.0000   1.0000   1.0000   1.0000   1.0000   1.0000
     1.0000   1.0000   1.0000   1.0000   1.0000   1.0000   1.0000   1.0000
     1.0000   1.0000   1.0000   1.0000   1.0000   1.0000   1.0000   1.0000
     1.0000   1.0000   1.0000   1.0002   1.0003   1.0009   1.0021   1.0036
     1.0105   1.0194   1.0441   1.0687   1.0788   1.0822   1.0407   0.8355
     0.0630   0.0008   0.0000

          k = 0.0000 0.2887-0.2724 (  3686 PWs)   bands (ev):

   -78.5456 -78.5424 -70.5235 -70.4745 -70.4679 -69.9778 -41.8441 -41.8437
   -41.8408 -41.8260 -41.8244 -41.8227 -36.7206 -36.7187 -36.6757 -36.6658
   -36.6612 -36.6526 -36.6338 -36.6157 -36.6081 -36.1556 -36.1366 -36.1281
    10.4182  11.9340  13.0799  13.1894  13.2419  13.5984  13.8528  13.9207
    14.0924  14.1662  14.2271  14.2891  14.3573  14.7027  14.8989  15.0047
    15.0381  15.4022  15.4889  15.8112  16.0095  16.0472  16.1205  16.1613
    16.2475  16.4186  16.4210  16.5037  16.6337  16.7557  16.8953  17.3760
    20.2800  21.1022  21.2604

     occupation numbers 
     1.0000   1.0000   1.0000   1.0000   1.0000   1.0000   1.0000   1.0000
     1.0000   1.0000   1.0000   1.0000   1.0000   1.0000   1.0000   1.0000
     1.0000   1.0000   1.0000   1.0000   1.0000   1.0000   1.0000   1.0000
     1.0000   1.0000   1.0000   1.0000   1.0000   1.0000   1.0000   1.0000
     1.0000   1.0000   1.0000   1.0000   1.0000   1.0000   1.0000   1.0000
     1.0000   1.0000   1.0000   1.0002   1.0013   1.0018   1.0031   1.0042
     1.0075   1.0205   1.0208   1.0310   1.0517   1.0720   1.0833   0.7816
     0.0000   0.0000   0.0000

          k =-0.2500 0.1443-0.2724 (  3686 PWs)   bands (ev):

   -78.5456 -78.5424 -70.5235 -70.4745 -70.4679 -69.9778 -41.8442 -41.8437
   -41.8409 -41.8259 -41.8242 -41.8228 -36.7216 -36.7203 -36.6830 -36.6608
   -36.6574 -36.6437 -36.6286 -36.6188 -36.6178 -36.1553 -36.1369 -36.1282
    10.4077  12.0776  13.1135  13.2803  13.3402  13.4076  13.4321  13.7742
    13.8784  13.8851  14.3877  14.6126  14.6360  14.7741  14.9307  15.0271
    15.0372  15.6659  15.7107  15.7984  15.8675  15.9424  15.9943  16.1313
    16.2612  16.3631  16.4580  16.5058  16.6141  16.8909  16.9232  17.2846
    19.6329  21.3639  21.6241

     occupation numbers 
     1.0000   1.0000   1.0000   1.0000   1.0000   1.0000   1.0000   1.0000
     1.0000   1.0000   1.0000   1.0000   1.0000   1.0000   1.0000   1.0000
     1.0000   1.0000   1.0000   1.0000   1.0000   1.0000   1.0000   1.0000
     1.0000   1.0000   1.0000   1.0000   1.0000   1.0000   1.0000   1.0000
     1.0000   1.0000   1.0000   1.0000   1.0000   1.0000   1.0000   1.0000
     1.0000   1.0000   1.0001   1.0002   1.0004   1.0007   1.0011   1.0033
     1.0082   1.0152   1.0250   1.0313   1.0484   1.0833   1.0824   0.8886
     0.0000   0.0000   0.0000

          k =-0.2500 0.4330-0.2724 (  3678 PWs)   bands (ev):

   -78.5447 -78.5433 -70.5233 -70.4721 -70.4695 -69.9788 -41.8449 -41.8448
   -41.8430 -41.8249 -41.8224 -41.8222 -36.7251 -36.7219 -36.6790 -36.6704
   -36.6629 -36.6381 -36.6340 -36.6184 -36.6056 -36.1509 -36.1379 -36.1283
    11.7167  12.6466  12.9046  13.0052  13.2579  13.4045  13.6928  14.0385
    14.0673  14.4225  14.4367  14.4739  14.6315  14.6485  14.6862  14.7597
    14.8465  15.0749  15.6624  15.7768  15.8299  15.9643  16.0679  16.1403
    16.3001  16.4073  16.5886  16.7345  16.8097  16.9258  17.0885  17.3319
    18.0797  18.6589  20.0536

     occupation numbers 
     1.0000   1.0000   1.0000   1.0000   1.0000   1.0000   1.0000   1.0000
     1.0000   1.0000   1.0000   1.0000   1.0000   1.0000   1.0000   1.0000
     1.0000   1.0000   1.0000   1.0000   1.0000   1.0000   1.0000   1.0000
     1.0000   1.0000   1.0000   1.0000   1.0000   1.0000   1.0000   1.0000
     1.0000   1.0000   1.0000   1.0000   1.0000   1.0000   1.0000   1.0000
     1.0000   1.0000   1.0000   1.0002   1.0003   1.0009   1.0021   1.0036
     1.0105   1.0194   1.0441   1.0687   1.0788   1.0822   1.0407   0.8355
     0.0630   0.0008   0.0000

 ------ SPIN DOWN ----------


          k = 0.0000 0.0000 0.0000 (  3695 PWs)   bands (ev):

   -75.9234 -75.9184 -67.3813 -67.3651 -67.3485 -67.1369 -39.4468 -39.4454
   -39.4454 -39.4293 -39.4281 -39.4281 -33.6810 -33.6674 -33.6674 -33.6291
   -33.6291 -33.6243 -33.5937 -33.5848 -33.5847 -33.3438 -33.3438 -33.3135
     9.1429  14.3509  14.4042  14.5257  14.5258  15.2905  15.5075  15.6058
    15.6059  15.9055  15.9056  15.9117  15.9117  15.9300  15.9302  17.1194
    17.1418  17.1421  18.5976  18.5976  18.7298  18.7299  19.1943  19.1943
    19.3125  19.3125  19.5411  19.5412  19.7359  19.8255  19.8256  20.9428
    21.3518  25.0143  27.5140

     occupation numbers 
     1.0000   1.0000   1.0000   1.0000   1.0000   1.0000   1.0000   1.0000
     1.0000   1.0000   1.0000   1.0000   1.0000   1.0000   1.0000   1.0000
     1.0000   1.0000   1.0000   1.0000   1.0000   1.0000   1.0000   1.0000
     1.0000   1.0000   1.0000   1.0000   1.0000   1.0000   1.0000   1.0000
     1.0000   1.0005   1.0005   1.0006   1.0006   1.0007   1.0007   1.0245
     1.0109   1.0108   0.0014   0.0014   0.0004   0.0004   0.0000   0.0000
     0.0000   0.0000   0.0000   0.0000   0.0000   0.0000   0.0000   0.0000
     0.0000   0.0000   0.0000

          k = 0.0000 0.0000 0.2724 (  3695 PWs)   bands (ev):

   -75.9233 -75.9184 -67.3796 -67.3665 -67.3478 -67.1379 -39.4456 -39.4452
   -39.4452 -39.4282 -39.4282 -39.4278 -33.6612 -33.6612 -33.6426 -33.6363
   -33.6362 -33.6117 -33.5960 -33.5839 -33.5839 -33.3692 -33.3437 -33.3437
     9.8843  11.9022  14.8102  14.8103  15.4267  15.4553  15.4554  15.5797
    15.5798  15.7434  15.8371  15.8372  16.3391  16.3392  16.4653  16.9808
    16.9810  17.5729  18.5755  18.6117  18.6118  18.7098  18.7099  19.0906
    19.0980  19.0981  19.4742  19.4743  19.5355  19.5355  19.6404  19.6405
    24.5026  25.5001  27.1066

     occupation numbers 
     1.0000   1.0000   1.0000   1.0000   1.0000   1.0000   1.0000   1.0000
     1.0000   1.0000   1.0000   1.0000   1.0000   1.0000   1.0000   1.0000
     1.0000   1.0000   1.0000   1.0000   1.0000   1.0000   1.0000   1.0000
     1.0000   1.0000   1.0000   1.0000   1.0000   1.0000   1.0000   1.0000
     1.0000   1.0001   1.0003   1.0003   1.0132   1.0133   1.0260   1.0755
     1.0755   0.5147   0.0017   0.0012   0.0012   0.0005   0.0005   0.0000
     0.0000   0.0000   0.0000   0.0000   0.0000   0.0000   0.0000   0.0000
     0.0000   0.0000   0.0000

          k = 0.0000 0.2887 0.0000 (  3680 PWs)   bands (ev):

   -75.9227 -75.9189 -67.3770 -67.3661 -67.3493 -67.1393 -39.4486 -39.4482
   -39.4476 -39.4278 -39.4264 -39.4251 -33.7061 -33.6901 -33.6566 -33.6357
   -33.6107 -33.5994 -33.5958 -33.5854 -33.5809 -33.3554 -33.3381 -33.3088
     9.9749  14.1175  14.4381  14.5015  14.5249  14.8278  14.8770  15.6712
    15.8756  15.8827  15.9424  16.1601  16.3528  16.6992  16.7292  16.9335
    17.0269  17.5724  18.4607  18.5244  18.5826  18.6006  18.7649  18.8012
    19.0286  19.2543  19.4140  19.4636  19.5237  19.5919  19.7029  20.8038
    21.2662  21.3919  21.7843

     occupation numbers 
     1.0000   1.0000   1.0000   1.0000   1.0000   1.0000   1.0000   1.0000
     1.0000   1.0000   1.0000   1.0000   1.0000   1.0000   1.0000   1.0000
     1.0000   1.0000   1.0000   1.0000   1.0000   1.0000   1.0000   1.0000
     1.0000   1.0000   1.0000   1.0000   1.0000   1.0000   1.0000   1.0001
     1.0004   1.0004   1.0007   1.0041   1.0143   1.0630   1.0679   1.0816
     1.0644   0.5154   0.0045   0.0026   0.0016   0.0013   0.0003   0.0002
     0.0000   0.0000   0.0000   0.0000   0.0000   0.0000   0.0000   0.0000
     0.0000   0.0000   0.0000

          k = 0.0000 0.2887 0.2724 (  3686 PWs)   bands (ev):

   -75.9227 -75.9190 -67.3758 -67.3670 -67.3486 -67.1404 -39.4476 -39.4475
   -39.4470 -39.4268 -39.4266 -39.4252 -33.6870 -33.6831 -33.6389 -33.6182
   -33.6176 -33.6071 -33.6044 -33.5818 -33.5778 -33.3626 -33.3531 -33.3382
    10.6709  12.5238  14.6846  14.8376  14.8981  15.0663  15.1121  15.6180
    15.6569  15.8115  16.3349  16.3802  16.4360  16.5921  16.7599  16.7936
    17.0459  17.7214  18.2106  18.2172  18.2911  18.5271  18.6121  18.6974
    18.7642  19.0173  19.2988  19.4024  19.4753  19.5614  19.6353  19.8083
    21.3842  22.7943  22.9829

     occupation numbers 
     1.0000   1.0000   1.0000   1.0000   1.0000   1.0000   1.0000   1.0000
     1.0000   1.0000   1.0000   1.0000   1.0000   1.0000   1.0000   1.0000
     1.0000   1.0000   1.0000   1.0000   1.0000   1.0000   1.0000   1.0000
     1.0000   1.0000   1.0000   1.0000   1.0000   1.0000   1.0000   1.0000
     1.0000   1.0002   1.0129   1.0167   1.0225   1.0447   1.0725   1.0770
     1.0582   0.3263   0.0282   0.0270   0.0163   0.0026   0.0012   0.0005
     0.0003   0.0000   0.0000   0.0000   0.0000   0.0000   0.0000   0.0000
     0.0000   0.0000   0.0000

          k = 0.0000-0.5773 0.0000 (  3666 PWs)   bands (ev):

   -75.9216 -75.9200 -67.3703 -67.3689 -67.3505 -67.1418 -39.4502 -39.4499
   -39.4496 -39.4263 -39.4249 -39.4233 -33.7182 -33.7053 -33.6458 -33.6336
   -33.6095 -33.5988 -33.5953 -33.5868 -33.5677 -33.3660 -33.3325 -33.3035
    12.1173  12.2207  13.8966  13.9239  15.0515  15.1739  15.4852  15.6536
    15.8530  15.8708  16.2480  16.3148  16.5989  16.6013  16.6323  16.9418
    17.9206  17.9389  18.3752  18.4385  18.4493  18.5752  18.6922  18.7509
    18.8858  18.9960  19.2030  19.2757  19.3087  19.5459  19.5887  19.6483
    20.0903  20.1218  22.5299

     occupation numbers 
     1.0000   1.0000   1.0000   1.0000   1.0000   1.0000   1.0000   1.0000
     1.0000   1.0000   1.0000   1.0000   1.0000   1.0000   1.0000   1.0000
     1.0000   1.0000   1.0000   1.0000   1.0000   1.0000   1.0000   1.0000
     1.0000   1.0000   1.0000   1.0000   1.0000   1.0000   1.0000   1.0000
     1.0003   1.0004   1.0075   1.0115   1.0458   1.0462   1.0515   1.0809
     0.1442   0.1321   0.0088   0.0054   0.0049   0.0017   0.0006   0.0003
     0.0001   0.0000   0.0000   0.0000   0.0000   0.0000   0.0000   0.0000
     0.0000   0.0000   0.0000

          k = 0.0000-0.5773 0.2724 (  3684 PWs)   bands (ev):

   -75.9216 -75.9200 -67.3707 -67.3686 -67.3497 -67.1430 -39.4493 -39.4490
   -39.4487 -39.4257 -39.4253 -39.4234 -33.7009 -33.6826 -33.6508 -33.6265
   -33.6149 -33.6120 -33.5800 -33.5755 -33.5754 -33.3746 -33.3445 -33.3326
    12.6847  12.7822  13.6925  13.9988  14.4147  15.5047  15.6927  15.8949
    15.9541  16.1344  16.1483  16.1822  16.1854  16.7357  16.7633  16.8399
    17.1618  17.4705  17.5796  17.8922  18.3113  18.4669  18.7907  18.7960
    18.8108  18.8961  19.1852  19.2338  19.3951  19.5927  19.7254  19.7433
    20.1614  20.3587  21.4542

     occupation numbers 
     1.0000   1.0000   1.0000   1.0000   1.0000   1.0000   1.0000   1.0000
     1.0000   1.0000   1.0000   1.0000   1.0000   1.0000   1.0000   1.0000
     1.0000   1.0000   1.0000   1.0000   1.0000   1.0000   1.0000   1.0000
     1.0000   1.0000   1.0000   1.0000   1.0000   1.0000   1.0001   1.0005
     1.0008   1.0034   1.0038   1.0048   1.0049   1.0689   1.0730   1.0814
     0.9976   0.6560   0.5055   0.1644   0.0141   0.0043   0.0002   0.0002
     0.0002   0.0001   0.0000   0.0000   0.0000   0.0000   0.0000   0.0000
     0.0000   0.0000   0.0000

          k = 0.2500 0.1443 0.0000 (  3680 PWs)   bands (ev):

   -75.9227 -75.9189 -67.3770 -67.3661 -67.3493 -67.1393 -39.4486 -39.4482
   -39.4476 -39.4278 -39.4264 -39.4251 -33.7061 -33.6901 -33.6566 -33.6357
   -33.6107 -33.5994 -33.5958 -33.5853 -33.5809 -33.3554 -33.3381 -33.3088
     9.9749  14.1175  14.4382  14.5015  14.5250  14.8278  14.8769  15.6712
    15.8756  15.8828  15.9425  16.1601  16.3528  16.6993  16.7289  16.9335
    17.0270  17.5722  18.4607  18.5244  18.5826  18.6005  18.7649  18.8012
    19.0284  19.2542  19.4140  19.4636  19.5237  19.5919  19.7029  20.8038
    21.2664  21.3920  21.7840

     occupation numbers 
     1.0000   1.0000   1.0000   1.0000   1.0000   1.0000   1.0000   1.0000
     1.0000   1.0000   1.0000   1.0000   1.0000   1.0000   1.0000   1.0000
     1.0000   1.0000   1.0000   1.0000   1.0000   1.0000   1.0000   1.0000
     1.0000   1.0000   1.0000   1.0000   1.0000   1.0000   1.0000   1.0001
     1.0004   1.0004   1.0007   1.0041   1.0143   1.0630   1.0679   1.0816
     1.0644   0.5156   0.0045   0.0026   0.0016   0.0013   0.0003   0.0002
     0.0000   0.0000   0.0000   0.0000   0.0000   0.0000   0.0000   0.0000
     0.0000   0.0000   0.0000

          k = 0.2500 0.1443 0.2724 (  3686 PWs)   bands (ev):

   -75.9227 -75.9190 -67.3759 -67.3668 -67.3487 -67.1404 -39.4477 -39.4474
   -39.4468 -39.4270 -39.4267 -39.4251 -33.6843 -33.6723 -33.6494 -33.6292
   -33.6241 -33.6177 -33.5867 -33.5780 -33.5733 -33.3669 -33.3498 -33.3381
    10.6782  12.4526  14.7202  14.8415  15.0090  15.2463  15.3137  15.6252
    15.6794  15.8715  15.9749  15.9826  16.2468  16.6139  16.6729  17.1114
    17.1299  17.5891  18.1091  18.2161  18.4750  18.5725  18.6358  18.7346
    18.8157  19.0815  19.3374  19.3507  19.4080  19.4701  19.5722  19.9182
    22.0520  22.3727  22.4811

     occupation numbers 
     1.0000   1.0000   1.0000   1.0000   1.0000   1.0000   1.0000   1.0000
     1.0000   1.0000   1.0000   1.0000   1.0000   1.0000   1.0000   1.0000
     1.0000   1.0000   1.0000   1.0000   1.0000   1.0000   1.0000   1.0000
     1.0000   1.0000   1.0000   1.0000   1.0000   1.0000   1.0000   1.0000
     1.0001   1.0004   1.0010   1.0010   1.0075   1.0484   1.0585   1.0289
     1.0183   0.4927   0.0531   0.0272   0.0040   0.0017   0.0010   0.0004
     0.0002   0.0000   0.0000   0.0000   0.0000   0.0000   0.0000   0.0000
     0.0000   0.0000   0.0000

          k = 0.2500 0.4330 0.0000 (  3691 PWs)   bands (ev):

   -75.9216 -75.9200 -67.3716 -67.3678 -67.3507 -67.1419 -39.4507 -39.4501
   -39.4487 -39.4263 -39.4250 -39.4240 -33.7159 -33.6841 -33.6740 -33.6372
   -33.6134 -33.6118 -33.5798 -33.5748 -33.5728 -33.3563 -33.3400 -33.3040
    11.4704  13.4660  13.5615  14.3784  14.3872  14.9875  15.4971  15.9494
    16.0516  16.1413  16.2469  16.4571  16.5290  16.6240  16.7398  16.7752
    16.9062  17.3808  18.1559  18.3672  18.4457  18.5366  18.5974  18.7230
    18.7747  18.9260  19.4300  19.4945  19.6065  19.6725  19.8971  19.9311
    20.0200  21.1157  21.2186

     occupation numbers 
     1.0000   1.0000   1.0000   1.0000   1.0000   1.0000   1.0000   1.0000
     1.0000   1.0000   1.0000   1.0000   1.0000   1.0000   1.0000   1.0000
     1.0000   1.0000   1.0000   1.0000   1.0000   1.0000   1.0000   1.0000
     1.0000   1.0000   1.0000   1.0000   1.0000   1.0000   1.0000   1.0008
     1.0018   1.0036   1.0075   1.0249   1.0347   1.0501   1.0696   1.0747
     1.0831   0.7755   0.0400   0.0094   0.0051   0.0024   0.0014   0.0004
     0.0002   0.0000   0.0000   0.0000   0.0000   0.0000   0.0000   0.0000
     0.0000   0.0000   0.0000

          k = 0.2500 0.4330 0.2724 (  3678 PWs)   bands (ev):

   -75.9216 -75.9200 -67.3713 -67.3679 -67.3497 -67.1430 -39.4495 -39.4487
   -39.4484 -39.4259 -39.4249 -39.4239 -33.6971 -33.6797 -33.6550 -33.6340
   -33.6144 -33.5993 -33.5868 -33.5842 -33.5715 -33.3571 -33.3537 -33.3374
    12.0908  13.4823  13.9727  14.0673  14.6764  14.8097  15.6668  15.8550
    15.9456  16.1689  16.3012  16.3851  16.3969  16.4614  16.5048  16.7688
    16.8303  17.1388  18.1996  18.2207  18.2604  18.3060  18.6114  18.6946
    18.8241  18.9601  19.2517  19.3670  19.5247  19.5520  19.5996  19.7718
    20.2836  20.7165  21.6728

     occupation numbers 
     1.0000   1.0000   1.0000   1.0000   1.0000   1.0000   1.0000   1.0000
     1.0000   1.0000   1.0000   1.0000   1.0000   1.0000   1.0000   1.0000
     1.0000   1.0000   1.0000   1.0000   1.0000   1.0000   1.0000   1.0000
     1.0000   1.0000   1.0000   1.0000   1.0000   1.0000   1.0000   1.0003
     1.0007   1.0044   1.0106   1.0172   1.0183   1.0255   1.0312   1.0738
     1.0807   1.0129   0.0303   0.0264   0.0202   0.0147   0.0012   0.0006
     0.0001   0.0000   0.0000   0.0000   0.0000   0.0000   0.0000   0.0000
     0.0000   0.0000   0.0000

          k =-0.5000-0.2887 0.0000 (  3666 PWs)   bands (ev):

   -75.9216 -75.9200 -67.3703 -67.3689 -67.3505 -67.1418 -39.4502 -39.4499
   -39.4496 -39.4263 -39.4249 -39.4233 -33.7182 -33.7053 -33.6458 -33.6336
   -33.6096 -33.5988 -33.5953 -33.5868 -33.5678 -33.3659 -33.3325 -33.3035
    12.1174  12.2208  13.8966  13.9239  15.0516  15.1740  15.4851  15.6535
    15.8531  15.8710  16.2481  16.3148  16.5990  16.6013  16.6323  16.9417
    17.9202  17.9391  18.3752  18.4385  18.4493  18.5755  18.6921  18.7509
    18.8857  18.9963  19.2029  19.2757  19.3088  19.5458  19.5884  19.6481
    20.0903  20.1211  22.7001

     occupation numbers 
     1.0000   1.0000   1.0000   1.0000   1.0000   1.0000   1.0000   1.0000
     1.0000   1.0000   1.0000   1.0000   1.0000   1.0000   1.0000   1.0000
     1.0000   1.0000   1.0000   1.0000   1.0000   1.0000   1.0000   1.0000
     1.0000   1.0000   1.0000   1.0000   1.0000   1.0000   1.0000   1.0000
     1.0003   1.0004   1.0075   1.0115   1.0458   1.0462   1.0515   1.0809
     0.1445   0.1320   0.0088   0.0054   0.0049   0.0017   0.0006   0.0003
     0.0001   0.0000   0.0000   0.0000   0.0000   0.0000   0.0000   0.0000
     0.0000   0.0000   0.0000

          k =-0.5000-0.2887 0.2724 (  3684 PWs)   bands (ev):

   -75.9216 -75.9200 -67.3707 -67.3686 -67.3497 -67.1430 -39.4494 -39.4490
   -39.4487 -39.4257 -39.4253 -39.4233 -33.7009 -33.6826 -33.6508 -33.6265
   -33.6148 -33.6120 -33.5800 -33.5755 -33.5754 -33.3745 -33.3445 -33.3327
    12.6848  12.7824  13.6926  13.9989  14.4146  15.5047  15.6927  15.8950
    15.9541  16.1344  16.1485  16.1822  16.1854  16.7355  16.7634  16.8399
    17.1617  17.4704  17.5796  17.8922  18.3113  18.4668  18.7906  18.7959
    18.8108  18.8961  19.1852  19.2337  19.3949  19.5927  19.7254  19.7433
    20.1615  20.3589  21.4540

     occupation numbers 
     1.0000   1.0000   1.0000   1.0000   1.0000   1.0000   1.0000   1.0000
     1.0000   1.0000   1.0000   1.0000   1.0000   1.0000   1.0000   1.0000
     1.0000   1.0000   1.0000   1.0000   1.0000   1.0000   1.0000   1.0000
     1.0000   1.0000   1.0000   1.0000   1.0000   1.0000   1.0001   1.0005
     1.0008   1.0034   1.0038   1.0048   1.0049   1.0689   1.0730   1.0815
     0.9976   0.6561   0.5055   0.1644   0.0141   0.0043   0.0002   0.0002
     0.0002   0.0001   0.0000   0.0000   0.0000   0.0000   0.0000   0.0000
     0.0000   0.0000   0.0000

          k =-0.5000 0.0000 0.0000 (  3691 PWs)   bands (ev):

   -75.9216 -75.9200 -67.3716 -67.3678 -67.3507 -67.1419 -39.4507 -39.4502
   -39.4488 -39.4264 -39.4250 -39.4239 -33.7159 -33.6841 -33.6740 -33.6372
   -33.6135 -33.6118 -33.5798 -33.5748 -33.5728 -33.3563 -33.3400 -33.3040
    11.4705  13.4661  13.5614  14.3784  14.3871  14.9876  15.4971  15.9494
    16.0516  16.1413  16.2470  16.4570  16.5291  16.6240  16.7398  16.7752
    16.9062  17.3807  18.1559  18.3672  18.4456  18.5365  18.5973  18.7229
    18.7748  18.9260  19.4300  19.4945  19.6065  19.6725  19.8971  19.9310
    20.0200  21.1156  21.2187

     occupation numbers 
     1.0000   1.0000   1.0000   1.0000   1.0000   1.0000   1.0000   1.0000
     1.0000   1.0000   1.0000   1.0000   1.0000   1.0000   1.0000   1.0000
     1.0000   1.0000   1.0000   1.0000   1.0000   1.0000   1.0000   1.0000
     1.0000   1.0000   1.0000   1.0000   1.0000   1.0000   1.0000   1.0008
     1.0018   1.0036   1.0075   1.0249   1.0347   1.0501   1.0696   1.0747
     1.0831   0.7756   0.0400   0.0094   0.0051   0.0024   0.0014   0.0004
     0.0002   0.0000   0.0000   0.0000   0.0000   0.0000   0.0000   0.0000
     0.0000   0.0000   0.0000

          k =-0.5000 0.0000 0.2724 (  3678 PWs)   bands (ev):

   -75.9216 -75.9200 -67.3713 -67.3679 -67.3497 -67.1430 -39.4495 -39.4487
   -39.4484 -39.4259 -39.4249 -39.4239 -33.6971 -33.6797 -33.6550 -33.6340
   -33.6144 -33.5993 -33.5868 -33.5841 -33.5715 -33.3571 -33.3537 -33.3374
    12.0909  13.4823  13.9728  14.0672  14.6765  14.8096  15.6668  15.8550
    15.9456  16.1688  16.3013  16.3851  16.3970  16.4614  16.5049  16.7688
    16.8303  17.1387  18.1994  18.2207  18.2603  18.3060  18.6115  18.6941
    18.8241  18.9601  19.2519  19.3668  19.5246  19.5519  19.5996  19.7718
    20.2837  20.7169  21.6726

     occupation numbers 
     1.0000   1.0000   1.0000   1.0000   1.0000   1.0000   1.0000   1.0000
     1.0000   1.0000   1.0000   1.0000   1.0000   1.0000   1.0000   1.0000
     1.0000   1.0000   1.0000   1.0000   1.0000   1.0000   1.0000   1.0000
     1.0000   1.0000   1.0000   1.0000   1.0000   1.0000   1.0000   1.0003
     1.0007   1.0044   1.0106   1.0172   1.0183   1.0255   1.0312   1.0738
     1.0807   1.0129   0.0304   0.0264   0.0202   0.0147   0.0012   0.0006
     0.0001   0.0000   0.0000   0.0000   0.0000   0.0000   0.0000   0.0000
     0.0000   0.0000   0.0000

          k = 0.0000 0.2887-0.2724 (  3686 PWs)   bands (ev):

   -75.9227 -75.9190 -67.3759 -67.3668 -67.3487 -67.1404 -39.4478 -39.4474
   -39.4468 -39.4269 -39.4267 -39.4251 -33.6843 -33.6723 -33.6494 -33.6292
   -33.6241 -33.6177 -33.5867 -33.5780 -33.5733 -33.3669 -33.3498 -33.3381
    10.6782  12.4526  14.7202  14.8415  15.0088  15.2463  15.3138  15.6252
    15.6793  15.8716  15.9749  15.9828  16.2466  16.6139  16.6728  17.1113
    17.1300  17.5892  18.1090  18.2161  18.4751  18.5726  18.6360  18.7348
    18.8157  19.0815  19.3374  19.3506  19.4081  19.4701  19.5723  19.9183
    22.0516  22.3728  22.4808

     occupation numbers 
     1.0000   1.0000   1.0000   1.0000   1.0000   1.0000   1.0000   1.0000
     1.0000   1.0000   1.0000   1.0000   1.0000   1.0000   1.0000   1.0000
     1.0000   1.0000   1.0000   1.0000   1.0000   1.0000   1.0000   1.0000
     1.0000   1.0000   1.0000   1.0000   1.0000   1.0000   1.0000   1.0000
     1.0001   1.0004   1.0010   1.0010   1.0075   1.0484   1.0585   1.0290
     1.0183   0.4926   0.0531   0.0272   0.0040   0.0017   0.0010   0.0004
     0.0002   0.0000   0.0000   0.0000   0.0000   0.0000   0.0000   0.0000
     0.0000   0.0000   0.0000

          k =-0.2500 0.1443-0.2724 (  3686 PWs)   bands (ev):

   -75.9226 -75.9190 -67.3758 -67.3670 -67.3486 -67.1404 -39.4476 -39.4475
   -39.4470 -39.4268 -39.4267 -39.4252 -33.6870 -33.6831 -33.6389 -33.6182
   -33.6176 -33.6071 -33.6044 -33.5818 -33.5778 -33.3626 -33.3531 -33.3382
    10.6709  12.5239  14.6847  14.8377  14.8981  15.0663  15.1120  15.6180
    15.6569  15.8115  16.3348  16.3802  16.4359  16.5920  16.7599  16.7937
    17.0460  17.7214  18.2107  18.2172  18.2910  18.5270  18.6123  18.6974
    18.7642  19.0173  19.2988  19.4025  19.4754  19.5614  19.6353  19.8082
    21.3845  22.7944  22.9827

     occupation numbers 
     1.0000   1.0000   1.0000   1.0000   1.0000   1.0000   1.0000   1.0000
     1.0000   1.0000   1.0000   1.0000   1.0000   1.0000   1.0000   1.0000
     1.0000   1.0000   1.0000   1.0000   1.0000   1.0000   1.0000   1.0000
     1.0000   1.0000   1.0000   1.0000   1.0000   1.0000   1.0000   1.0000
     1.0000   1.0002   1.0129   1.0167   1.0224   1.0447   1.0726   1.0770
     1.0582   0.3263   0.0282   0.0270   0.0163   0.0026   0.0012   0.0005
     0.0003   0.0000   0.0000   0.0000   0.0000   0.0000   0.0000   0.0000
     0.0000   0.0000   0.0000

          k =-0.2500 0.4330-0.2724 (  3678 PWs)   bands (ev):

   -75.9216 -75.9200 -67.3713 -67.3679 -67.3497 -67.1430 -39.4495 -39.4487
   -39.4484 -39.4259 -39.4249 -39.4239 -33.6971 -33.6797 -33.6550 -33.6340
   -33.6144 -33.5993 -33.5869 -33.5841 -33.5714 -33.3571 -33.3537 -33.3373
    12.0908  13.4823  13.9729  14.0671  14.6765  14.8095  15.6668  15.8550
    15.9457  16.1688  16.3013  16.3851  16.3970  16.4613  16.5049  16.7688
    16.8303  17.1387  18.1995  18.2207  18.2604  18.3061  18.6113  18.6941
    18.8241  18.9601  19.2516  19.3669  19.5247  19.5521  19.5997  19.7719
    20.2838  20.7164  21.6734

     occupation numbers 
     1.0000   1.0000   1.0000   1.0000   1.0000   1.0000   1.0000   1.0000
     1.0000   1.0000   1.0000   1.0000   1.0000   1.0000   1.0000   1.0000
     1.0000   1.0000   1.0000   1.0000   1.0000   1.0000   1.0000   1.0000
     1.0000   1.0000   1.0000   1.0000   1.0000   1.0000   1.0000   1.0003
     1.0007   1.0044   1.0106   1.0172   1.0183   1.0255   1.0312   1.0738
     1.0807   1.0129   0.0304   0.0264   0.0202   0.0147   0.0012   0.0006
     0.0001   0.0000   0.0000   0.0000   0.0000   0.0000   0.0000   0.0000
     0.0000   0.0000   0.0000

     the Fermi energy is    17.6595 ev

!    total energy              =   -1890.39383018 Ry
     estimated scf accuracy    <       0.00000220 Ry
     smearing contrib. (-TS)   =       0.03832798 Ry
     internal energy E=F+TS    =   -1890.43215816 Ry

     The total energy is F=E-TS. E is the sum of the following terms:
     one-electron contribution =    -748.11415045 Ry
     hartree contribution      =     432.59739113 Ry
     xc contribution           =    -170.48289487 Ry
     ewald contribution        =   -1081.56839585 Ry
     one-center paw contrib.   =    -322.86410812 Ry
      -> PAW hartree energy AE =     548.29227074 Ry
      -> PAW hartree energy PS =    -544.39801624 Ry
      -> PAW xc energy AE      =    -323.34790980 Ry
      -> PAW xc energy PS      =      77.30611892 Ry
      -> total E_H with PAW    =     436.49164563 Ry
      -> total E_XC with PAW   =    -416.52468575 Ry

     total magnetization       =    14.01 Bohr mag/cell
     absolute magnetization    =    14.80 Bohr mag/cell

     convergence has been achieved in  17 iterations

     Writing all to output data dir ./tmp/fe2co_fm_debug/fe2co_fm_debug.save/ :
     XML data file, charge density, pseudopotentials, collected wavefunctions

     init_run     :      3.81s CPU      4.12s WALL (       1 calls)
     electrons    :    166.53s CPU    179.32s WALL (       1 calls)

     Called by init_run:
     wfcinit      :      1.58s CPU      1.68s WALL (       1 calls)
     wfcinit:atom :      0.02s CPU      0.02s WALL (      34 calls)
     wfcinit:wfcr :      1.39s CPU      1.48s WALL (      34 calls)
     potinit      :      1.18s CPU      1.33s WALL (       1 calls)
     hinit0       :      0.70s CPU      0.72s WALL (       1 calls)

     Called by electrons:
     c_bands      :    127.46s CPU    136.18s WALL (      17 calls)
     sum_band     :     17.80s CPU     19.19s WALL (      17 calls)
     v_of_rho     :      1.21s CPU      1.46s WALL (      18 calls)
     v_h          :      0.02s CPU      0.04s WALL (      18 calls)
     v_xc         :      1.19s CPU      1.42s WALL (      18 calls)
     newd         :      5.36s CPU      5.98s WALL (      18 calls)
     PAW_pot      :     15.57s CPU     17.45s WALL (      18 calls)
     mix_rho      :      0.29s CPU      0.37s WALL (      17 calls)

     Called by c_bands:
     init_us_2    :      0.85s CPU      0.88s WALL (    1190 calls)
     ccgdiagg     :    105.91s CPU    112.98s WALL (     578 calls)
     wfcrot       :     22.32s CPU     24.02s WALL (     578 calls)

     Called by sum_band:
     sum_band:wei :      0.03s CPU      0.03s WALL (      17 calls)
     sum_band:loo :      9.37s CPU     10.13s WALL (      17 calls)
     sum_band:buf :      0.11s CPU      0.13s WALL (     578 calls)
     sum_band:ini :      0.43s CPU      0.45s WALL (     578 calls)
     sum_band:cal :      1.25s CPU      1.28s WALL (     578 calls)
     sum_band:bec :      0.02s CPU      0.03s WALL (     578 calls)
     addusdens    :      8.10s CPU      8.71s WALL (      17 calls)
                                        0.00s GPU  (      17 calls)
     addusd:skk   :      0.01s CPU      0.01s WALL (      51 calls)
                                        0.00s GPU  (      51 calls)

     Called by *cgdiagg:
     h_psi        :     93.08s CPU     99.74s WALL (  101833 calls)
     s_psi        :     11.74s CPU     12.57s WALL (  203088 calls)

     Called by h_psi:
     h_psi:calbec :      7.73s CPU      8.23s WALL (  101833 calls)
     vloc_psi     :     68.95s CPU     74.04s WALL (  101833 calls)
     add_vuspsi   :     15.58s CPU     16.63s WALL (  101833 calls)
     hs_1psi      :     80.89s CPU     86.30s WALL (  101255 calls)
     s_1psi       :     11.50s CPU     12.28s WALL (  101255 calls)

     General routines
     calbec       :     14.37s CPU     15.36s WALL (  203666 calls)
     fft          :      0.64s CPU      0.83s WALL (     444 calls)
     ffts         :      0.33s CPU      0.39s WALL (     408 calls)
     fftw         :     66.13s CPU     71.08s WALL (  304884 calls)
     interpolate  :      0.24s CPU      0.26s WALL (      36 calls)

     Parallel routines

     PAW routines
     PAW_pot      :     15.57s CPU     17.45s WALL (      18 calls)
     PAW_symme    :      0.00s CPU      0.00s WALL (      35 calls)

     PWSCF        :   2m50.65s CPU   3m 3.94s WALL


   This run was terminated on:  11:36:50  17Mar2026            

=------------------------------------------------------------------------------=
   JOB DONE.
=------------------------------------------------------------------------------=
