
     Program PWSCF v.7.4.1 starts on 17Mar2026 at 13:41: 8 

     This program is part of the open-source Quantum ESPRESSO suite
     for quantum simulation of materials; please cite
         "P. Giannozzi et al., J. Phys.:Condens. Matter 21 395502 (2009);
         "P. Giannozzi et al., J. Phys.:Condens. Matter 29 465901 (2017);
         "P. Giannozzi et al., J. Chem. Phys. 152 154105 (2020);
          URL http://www.quantum-espresso.org", 
     in publications or presentations arising from this work. More details at
     http://www.quantum-espresso.org/quote

     Parallel version (MPI), running on     2 processors

     MPI processes distributed on     1 nodes
     16451 MiB available memory on the printing compute node when the environment starts

     Reading input from scf_fe6co2ge_nm_debug.in

     Current dimensions of program PWSCF are:
     Max number of different atomic species (ntypx) = 10
     Max number of k-points (npk) =  40000
     Max angular momentum in pseudopotentials (lmaxx) =  4
     file Fe.pbesol-spn-kjpaw_psl.1.0.0.UPF: wavefunction(s)  3P 3D renormalized
     file Co.pbesol-spn-rrkjus_psl.0.3.1.UPF: wavefunction(s)  3P renormalized
     file Ge.pbe-kjpaw.UPF: wavefunction(s)  4S renormalized

     IMPORTANT: XC functional enforced from input :
     Exchange-correlation= PBESOL
                           (   1   4  10   8   0   0   0)
     Any further DFT definition will be discarded
     Please, verify this is what you really want

     Message from routine setup:
     using ibrav=0 with symmetry is DISCOURAGED, use correct ibrav instead

     R & G space division:  proc/nbgrp/npool/nimage =       2
     Subspace diagonalization in iterative solution of the eigenvalue problem:
     a serial algorithm will be used


     Parallelization info
     --------------------
     sticks:   dense  smooth     PW     G-vecs:    dense   smooth      PW
     Min         957     477    132                62819    22223    3324
     Max         958     478    133                62822    22228    3325
     Sum        1915     955    265               125641    44451    6649

     Using Slab Decomposition



     bravais-lattice index     =            0
     lattice parameter (alat)  =       7.6093  a.u.
     unit-cell volume          =     707.1589 (a.u.)^3
     number of atoms/cell      =            9
     number of atomic types    =            3
     number of electrons       =       134.00
     number of Kohn-Sham states=           80
     kinetic-energy cutoff     =      60.0000  Ry
     charge density cutoff     =     480.0000  Ry
     scf convergence threshold =      1.0E-05
     mixing beta               =       0.2000
     number of iterations used =            8  local-TF  mixing
     Exchange-correlation= PBESOL
                           (   1   4  10   8   0   0   0)

     celldm(1)=   7.609298  celldm(2)=   0.000000  celldm(3)=   0.000000
     celldm(4)=   0.000000  celldm(5)=   0.000000  celldm(6)=   0.000000

     crystal axes: (cart. coord. in units of alat)
               a(1) = (   1.000000   0.000000   0.000000 )  
               a(2) = (  -0.500000   0.866198   0.000000 )  
               a(3) = (   0.000000   0.000000   1.852961 )  

     reciprocal axes: (cart. coord. in units 2 pi/alat)
               b(1) = (  1.000000  0.577235 -0.000000 )  
               b(2) = (  0.000000  1.154471  0.000000 )  
               b(3) = (  0.000000 -0.000000  0.539677 )  


     PseudoPot. # 1 for Fe read from file:
     ./pseudo/Fe.pbesol-spn-kjpaw_psl.1.0.0.UPF
     MD5 check sum: e30d5f36a6f0cb983ee41abee56170da
     Pseudo is Projector augmented-wave + core cor, Zval = 16.0
     Generated using &quot;atomic&quot; code by A. Dal Corso  v.6.3
     Shape of augmentation charge: PSQ
     Using radial grid of 1191 points,  6 beta functions with: 
                l(1) =   0
                l(2) =   0
                l(3) =   1
                l(4) =   1
                l(5) =   2
                l(6) =   2
     Q(r) pseudized with 0 coefficients 


     PseudoPot. # 2 for Co read from file:
     ./pseudo/Co.pbesol-spn-rrkjus_psl.0.3.1.UPF
     MD5 check sum: df65536841c871d28055fcb0059894d0
     Pseudo is Ultrasoft + core correction, Zval = 17.0
     Generated using &quot;atomic&quot; code by A. Dal Corso  v.6.3
     Using radial grid of 1193 points,  6 beta functions with: 
                l(1) =   0
                l(2) =   0
                l(3) =   1
                l(4) =   1
                l(5) =   2
                l(6) =   2
     Q(r) pseudized with 0 coefficients 


     PseudoPot. # 3 for Ge read from file:
     ./pseudo/Ge.pbe-kjpaw.UPF
     MD5 check sum: fa6acec385508fbd41db1ad5f2fba766
     Pseudo is Projector augmented-wave + core cor, Zval =  4.0
     Generated using "atomic" code by A. Dal Corso (espresso distribution)
     Shape of augmentation charge: BESSEL
     Using radial grid of 1207 points,  4 beta functions with: 
                l(1) =   0
                l(2) =   0
                l(3) =   1
                l(4) =   1
     Q(r) pseudized with 0 coefficients 


     atomic species   valence    mass     pseudopotential
     Fe               16.00    55.84500     Fe( 1.00)
     Co               17.00    58.93319     Co( 1.00)
     Ge                4.00    72.63000     Ge( 1.00)

      2 Sym. Ops. (no inversion) found


                                    s                        frac. trans.

      isym =  1     identity                                     

 cryst.   s( 1) = (     1          0          0      )
                  (     0          1          0      )
                  (     0          0          1      )

 cart.    s( 1) = (  1.0000000  0.0000000  0.0000000 )
                  (  0.0000000  1.0000000  0.0000000 )
                  (  0.0000000  0.0000000  1.0000000 )


      isym =  2     inv. 180 deg rotation - cart. axis [1,0,0]   

 cryst.   s( 2) = (    -1          0          0      )
                  (     1          1          0      )
                  (     0          0          1      )

 cart.    s( 2) = ( -1.0000000  0.0000002  0.0000000 )
                  (  0.0000000  1.0000000  0.0000000 )
                  (  0.0000000  0.0000000  1.0000000 )


   Cartesian axes

     site n.     atom                  positions (alat units)
         1        Fe     tau(   1) = (   0.0000000   0.0000000   1.8449801  )
         2        Fe     tau(   2) = (   0.0000000   0.0000000   0.6205621  )
         3        Fe     tau(   3) = (   0.4999995   0.2887323   0.8327780  )
         4        Fe     tau(   4) = (   0.0000000   0.5774646   1.0278688  )
         5        Fe     tau(   5) = (   0.0000000   0.0000000   1.2380724  )
         6        Fe     tau(   6) = (   0.0000000   0.5774646   1.6465354  )
         7        Co     tau(   7) = (   0.0000000   0.5774646   0.4164789  )
         8        Co     tau(   8) = (   0.4999995   0.2887323   1.4339804  )
         9        Ge     tau(   9) = (   0.4999995   0.2887323   0.2035422  )

   Crystallographic axes

     site n.     atom                  positions (cryst. coord.)
         1        Fe     tau(   1) = (  0.0000000  0.0000000  0.9956930  )
         2        Fe     tau(   2) = (  0.0000000  0.0000000  0.3349030  )
         3        Fe     tau(   3) = (  0.6666660  0.3333330  0.4494310  )
         4        Fe     tau(   4) = (  0.3333330  0.6666660  0.5547170  )
         5        Fe     tau(   5) = (  0.0000000  0.0000000  0.6681590  )
         6        Fe     tau(   6) = (  0.3333330  0.6666660  0.8885970  )
         7        Co     tau(   7) = (  0.3333330  0.6666660  0.2247640  )
         8        Co     tau(   8) = (  0.6666660  0.3333330  0.7738860  )
         9        Ge     tau(   9) = (  0.6666660  0.3333330  0.1098470  )

     number of k points=    17  Marzari-Vanderbilt smearing, width (Ry)=  0.0400
                       cart. coord. in units 2pi/alat
        k(    1) = (   0.0000000   0.0000000   0.0000000), wk =   0.0416667
        k(    2) = (   0.0000000   0.0000000   0.1798923), wk =   0.0833333
        k(    3) = (   0.0000000   0.2886177   0.0000000), wk =   0.0833333
        k(    4) = (   0.0000000   0.2886177   0.1798923), wk =   0.0833333
        k(    5) = (   0.0000000  -0.5772354   0.0000000), wk =   0.0416667
        k(    6) = (   0.0000000  -0.5772354   0.1798923), wk =   0.0833333
        k(    7) = (   0.2500000   0.1443088   0.0000000), wk =   0.1666667
        k(    8) = (   0.2500000   0.1443088   0.1798923), wk =   0.1666667
        k(    9) = (   0.2500000   0.4329265   0.0000000), wk =   0.1666667
        k(   10) = (   0.2500000   0.4329265   0.1798923), wk =   0.1666667
        k(   11) = (  -0.5000000  -0.2886176   0.0000000), wk =   0.0833333
        k(   12) = (  -0.5000000  -0.2886176   0.1798923), wk =   0.1666667
        k(   13) = (  -0.5000000   0.0000000   0.0000000), wk =   0.0833333
        k(   14) = (  -0.5000000   0.0000000   0.1798923), wk =   0.1666667
        k(   15) = (   0.0000000   0.2886177  -0.1798923), wk =   0.0833333
        k(   16) = (  -0.2500000   0.1443089  -0.1798923), wk =   0.1666667
        k(   17) = (  -0.2500000   0.4329265  -0.1798923), wk =   0.1666667

                       cryst. coord.
        k(    1) = (   0.0000000   0.0000000   0.0000000), wk =   0.0416667
        k(    2) = (   0.0000000   0.0000000   0.3333333), wk =   0.0833333
        k(    3) = (   0.0000000   0.2500000   0.0000000), wk =   0.0833333
        k(    4) = (   0.0000000   0.2500000   0.3333333), wk =   0.0833333
        k(    5) = (   0.0000000  -0.5000000   0.0000000), wk =   0.0416667
        k(    6) = (   0.0000000  -0.5000000   0.3333333), wk =   0.0833333
        k(    7) = (   0.2500000   0.0000000   0.0000000), wk =   0.1666667
        k(    8) = (   0.2500000   0.0000000   0.3333333), wk =   0.1666667
        k(    9) = (   0.2500000   0.2500000   0.0000000), wk =   0.1666667
        k(   10) = (   0.2500000   0.2500000   0.3333333), wk =   0.1666667
        k(   11) = (  -0.5000000   0.0000000   0.0000000), wk =   0.0833333
        k(   12) = (  -0.5000000   0.0000000   0.3333333), wk =   0.1666667
        k(   13) = (  -0.5000000   0.2500000   0.0000000), wk =   0.0833333
        k(   14) = (  -0.5000000   0.2500000   0.3333333), wk =   0.1666667
        k(   15) = (   0.0000000   0.2500000  -0.3333333), wk =   0.0833333
        k(   16) = (  -0.2500000   0.2500000  -0.3333333), wk =   0.1666667
        k(   17) = (  -0.2500000   0.5000000  -0.3333333), wk =   0.1666667

     Dense  grid:   125641 G-vectors     FFT dimensions: (  54,  54, 100)

     Smooth grid:    44451 G-vectors     FFT dimensions: (  40,  40,  72)

     Dynamical RAM for                 wfc:       3.39 MB

     Dynamical RAM for     wfc (w. buffer):      60.97 MB

     Dynamical RAM for           str. fact:       2.88 MB

     Dynamical RAM for           local pot:       0.00 MB

     Dynamical RAM for          nlocal pot:       6.44 MB

     Dynamical RAM for                qrad:       5.27 MB

     Dynamical RAM for          rho,v,vnew:       6.21 MB

     Dynamical RAM for               rhoin:       2.07 MB

     Dynamical RAM for            rho*nmix:      15.34 MB

     Dynamical RAM for           G-vectors:       3.76 MB

     Dynamical RAM for          h,s,v(r/c):       0.29 MB

     Dynamical RAM for          <psi|beta>:       0.19 MB

     Dynamical RAM for      wfcinit/wfcrot:       6.92 MB

     Dynamical RAM for           addusdens:     184.04 MB

     Estimated static dynamical RAM per process >      97.00 MB

     Estimated max dynamical RAM per process >     296.38 MB

     Estimated total dynamical RAM >     592.76 MB

     Check: negative core charge=   -0.000006

     Initial potential from superposition of free atoms

     starting charge     133.9963, renormalised to     134.0000

     negative rho (up, down):  7.610E-03 0.000E+00
     Starting wfcs are   84 randomized atomic wfcs
     Checking if some PAW data can be deallocated... 
       PAW data deallocated on    1 nodes for type:  3

     total cpu time spent up to now is        4.3 secs

     Self-consistent Calculation

     iteration #  1     ecut=    60.00 Ry     beta= 0.20
     CG style diagonalization

---- Real-time Memory Report at c_bands before calling an iterative solver
           257 MiB given to the printing process from OS
             0 MiB allocation reported by mallinfo(arena+hblkhd)
         15950 MiB available memory on the node where the printing process lives
------------------
     ethr =  1.00E-02,  avg # of iterations =  2.4

     negative rho (up, down):  8.386E-03 0.000E+00

     total cpu time spent up to now is       12.9 secs

     total energy              =   -2704.34856108 Ry
     estimated scf accuracy    <       1.34051441 Ry

     iteration #  2     ecut=    60.00 Ry     beta= 0.20
     CG style diagonalization

---- Real-time Memory Report at c_bands before calling an iterative solver
           340 MiB given to the printing process from OS
             0 MiB allocation reported by mallinfo(arena+hblkhd)
         15605 MiB available memory on the node where the printing process lives
------------------
     ethr =  1.00E-03,  avg # of iterations =  3.9

     negative rho (up, down):  8.883E-03 0.000E+00

     total cpu time spent up to now is       25.6 secs

     total energy              =   -2704.80460309 Ry
     estimated scf accuracy    <       3.20069179 Ry

     iteration #  3     ecut=    60.00 Ry     beta= 0.20
     CG style diagonalization

---- Real-time Memory Report at c_bands before calling an iterative solver
           341 MiB given to the printing process from OS
             0 MiB allocation reported by mallinfo(arena+hblkhd)
         15441 MiB available memory on the node where the printing process lives
------------------
     ethr =  1.00E-03,  avg # of iterations =  3.4

     negative rho (up, down):  9.688E-03 0.000E+00

     total cpu time spent up to now is       36.2 secs

     total energy              =   -2705.01143008 Ry
     estimated scf accuracy    <       0.19574002 Ry

     iteration #  4     ecut=    60.00 Ry     beta= 0.20
     CG style diagonalization

---- Real-time Memory Report at c_bands before calling an iterative solver
           342 MiB given to the printing process from OS
             0 MiB allocation reported by mallinfo(arena+hblkhd)
         15372 MiB available memory on the node where the printing process lives
------------------
     ethr =  1.46E-04,  avg # of iterations =  3.7

     negative rho (up, down):  1.009E-02 0.000E+00

     total cpu time spent up to now is       47.8 secs

     total energy              =   -2705.04372800 Ry
     estimated scf accuracy    <       0.19092579 Ry

     iteration #  5     ecut=    60.00 Ry     beta= 0.20
     CG style diagonalization

---- Real-time Memory Report at c_bands before calling an iterative solver
           342 MiB given to the printing process from OS
             0 MiB allocation reported by mallinfo(arena+hblkhd)
         15311 MiB available memory on the node where the printing process lives
------------------
     ethr =  1.42E-04,  avg # of iterations =  3.4

     negative rho (up, down):  1.396E-02 0.000E+00

     total cpu time spent up to now is       58.7 secs

     total energy              =   -2705.01156608 Ry
     estimated scf accuracy    <       0.17324215 Ry

     iteration #  6     ecut=    60.00 Ry     beta= 0.20
     CG style diagonalization

---- Real-time Memory Report at c_bands before calling an iterative solver
           343 MiB given to the printing process from OS
             0 MiB allocation reported by mallinfo(arena+hblkhd)
         15330 MiB available memory on the node where the printing process lives
------------------
     ethr =  1.29E-04,  avg # of iterations =  3.1

     negative rho (up, down):  2.240E-02 0.000E+00

     total cpu time spent up to now is       68.4 secs

     total energy              =   -2705.00147529 Ry
     estimated scf accuracy    <       0.16000470 Ry

     iteration #  7     ecut=    60.00 Ry     beta= 0.20
     CG style diagonalization

---- Real-time Memory Report at c_bands before calling an iterative solver
           344 MiB given to the printing process from OS
             0 MiB allocation reported by mallinfo(arena+hblkhd)
         15276 MiB available memory on the node where the printing process lives
------------------
     ethr =  1.19E-04,  avg # of iterations =  3.7

     negative rho (up, down):  2.262E-02 0.000E+00

     total cpu time spent up to now is       80.1 secs

     total energy              =   -2705.03490304 Ry
     estimated scf accuracy    <       0.20996087 Ry

     iteration #  8     ecut=    60.00 Ry     beta= 0.20
     CG style diagonalization

---- Real-time Memory Report at c_bands before calling an iterative solver
           344 MiB given to the printing process from OS
             0 MiB allocation reported by mallinfo(arena+hblkhd)
         15291 MiB available memory on the node where the printing process lives
------------------
     ethr =  1.19E-04,  avg # of iterations =  3.5

     negative rho (up, down):  2.097E-02 0.000E+00

     total cpu time spent up to now is       90.6 secs

     total energy              =   -2705.02985874 Ry
     estimated scf accuracy    <       0.13157688 Ry

     iteration #  9     ecut=    60.00 Ry     beta= 0.20
     CG style diagonalization

---- Real-time Memory Report at c_bands before calling an iterative solver
           345 MiB given to the printing process from OS
             0 MiB allocation reported by mallinfo(arena+hblkhd)
         15294 MiB available memory on the node where the printing process lives
------------------
     ethr =  9.82E-05,  avg # of iterations =  3.0

     negative rho (up, down):  2.162E-02 0.000E+00

     total cpu time spent up to now is      100.3 secs

     total energy              =   -2705.02292356 Ry
     estimated scf accuracy    <       0.05581285 Ry

     iteration # 10     ecut=    60.00 Ry     beta= 0.20
     CG style diagonalization

---- Real-time Memory Report at c_bands before calling an iterative solver
           346 MiB given to the printing process from OS
             0 MiB allocation reported by mallinfo(arena+hblkhd)
         15279 MiB available memory on the node where the printing process lives
------------------
     ethr =  4.17E-05,  avg # of iterations =  3.1

     negative rho (up, down):  2.223E-02 0.000E+00

     total cpu time spent up to now is      109.9 secs

     total energy              =   -2705.02307157 Ry
     estimated scf accuracy    <       0.01414320 Ry

     iteration # 11     ecut=    60.00 Ry     beta= 0.20
     CG style diagonalization

---- Real-time Memory Report at c_bands before calling an iterative solver
           346 MiB given to the printing process from OS
             0 MiB allocation reported by mallinfo(arena+hblkhd)
         15113 MiB available memory on the node where the printing process lives
------------------
     ethr =  1.06E-05,  avg # of iterations =  3.9

     negative rho (up, down):  2.283E-02 0.000E+00

     total cpu time spent up to now is      122.2 secs

     total energy              =   -2705.02652159 Ry
     estimated scf accuracy    <       0.00252878 Ry

     iteration # 12     ecut=    60.00 Ry     beta= 0.20
     CG style diagonalization

---- Real-time Memory Report at c_bands before calling an iterative solver
           346 MiB given to the printing process from OS
             0 MiB allocation reported by mallinfo(arena+hblkhd)
         15052 MiB available memory on the node where the printing process lives
------------------
     ethr =  1.89E-06,  avg # of iterations =  5.7

     negative rho (up, down):  2.296E-02 0.000E+00

     total cpu time spent up to now is      140.0 secs

     total energy              =   -2705.02905753 Ry
     estimated scf accuracy    <       0.00593846 Ry

     iteration # 13     ecut=    60.00 Ry     beta= 0.20
     CG style diagonalization

---- Real-time Memory Report at c_bands before calling an iterative solver
           346 MiB given to the printing process from OS
             0 MiB allocation reported by mallinfo(arena+hblkhd)
         15215 MiB available memory on the node where the printing process lives
------------------
     ethr =  1.89E-06,  avg # of iterations =  3.7

     negative rho (up, down):  2.291E-02 0.000E+00

     total cpu time spent up to now is      151.8 secs

     total energy              =   -2705.02930923 Ry
     estimated scf accuracy    <       0.00160747 Ry

     iteration # 14     ecut=    60.00 Ry     beta= 0.20
     CG style diagonalization

---- Real-time Memory Report at c_bands before calling an iterative solver
           346 MiB given to the printing process from OS
             0 MiB allocation reported by mallinfo(arena+hblkhd)
         15241 MiB available memory on the node where the printing process lives
------------------
     ethr =  1.20E-06,  avg # of iterations =  3.9

     negative rho (up, down):  2.335E-02 0.000E+00

     total cpu time spent up to now is      163.8 secs

     total energy              =   -2705.02981580 Ry
     estimated scf accuracy    <       0.00100686 Ry

     iteration # 15     ecut=    60.00 Ry     beta= 0.20
     CG style diagonalization

---- Real-time Memory Report at c_bands before calling an iterative solver
           346 MiB given to the printing process from OS
             0 MiB allocation reported by mallinfo(arena+hblkhd)
         15190 MiB available memory on the node where the printing process lives
------------------
     ethr =  7.51E-07,  avg # of iterations =  4.1

     negative rho (up, down):  2.355E-02 0.000E+00

     total cpu time spent up to now is      177.0 secs

     total energy              =   -2705.02942277 Ry
     estimated scf accuracy    <       0.00272558 Ry

     iteration # 16     ecut=    60.00 Ry     beta= 0.20
     CG style diagonalization

---- Real-time Memory Report at c_bands before calling an iterative solver
           346 MiB given to the printing process from OS
             0 MiB allocation reported by mallinfo(arena+hblkhd)
         15198 MiB available memory on the node where the printing process lives
------------------
     ethr =  7.51E-07,  avg # of iterations =  3.6

     negative rho (up, down):  2.413E-02 0.000E+00

     total cpu time spent up to now is      188.0 secs

     total energy              =   -2705.02961308 Ry
     estimated scf accuracy    <       0.00040930 Ry

     iteration # 17     ecut=    60.00 Ry     beta= 0.20
     CG style diagonalization

---- Real-time Memory Report at c_bands before calling an iterative solver
           346 MiB given to the printing process from OS
             0 MiB allocation reported by mallinfo(arena+hblkhd)
         15216 MiB available memory on the node where the printing process lives
------------------
     ethr =  3.05E-07,  avg # of iterations =  3.9

     negative rho (up, down):  2.424E-02 0.000E+00

     total cpu time spent up to now is      200.3 secs

     total energy              =   -2705.02973645 Ry
     estimated scf accuracy    <       0.00010724 Ry

     iteration # 18     ecut=    60.00 Ry     beta= 0.20
     CG style diagonalization

---- Real-time Memory Report at c_bands before calling an iterative solver
           346 MiB given to the printing process from OS
             0 MiB allocation reported by mallinfo(arena+hblkhd)
         15231 MiB available memory on the node where the printing process lives
------------------
     ethr =  8.00E-08,  avg # of iterations =  4.2

     negative rho (up, down):  2.435E-02 0.000E+00

     total cpu time spent up to now is      213.4 secs

     total energy              =   -2705.02974551 Ry
     estimated scf accuracy    <       0.00026411 Ry

     iteration # 19     ecut=    60.00 Ry     beta= 0.20
     CG style diagonalization

---- Real-time Memory Report at c_bands before calling an iterative solver
           346 MiB given to the printing process from OS
             0 MiB allocation reported by mallinfo(arena+hblkhd)
         15229 MiB available memory on the node where the printing process lives
------------------
     ethr =  8.00E-08,  avg # of iterations =  3.7

     negative rho (up, down):  2.439E-02 0.000E+00

     total cpu time spent up to now is      224.8 secs

     total energy              =   -2705.02975489 Ry
     estimated scf accuracy    <       0.00008811 Ry

     iteration # 20     ecut=    60.00 Ry     beta= 0.20
     CG style diagonalization

---- Real-time Memory Report at c_bands before calling an iterative solver
           346 MiB given to the printing process from OS
             0 MiB allocation reported by mallinfo(arena+hblkhd)
         15208 MiB available memory on the node where the printing process lives
------------------
     ethr =  6.58E-08,  avg # of iterations =  3.3

     negative rho (up, down):  2.433E-02 0.000E+00

     total cpu time spent up to now is      235.1 secs

     total energy              =   -2705.02974511 Ry
     estimated scf accuracy    <       0.00004188 Ry

     iteration # 21     ecut=    60.00 Ry     beta= 0.20
     CG style diagonalization

---- Real-time Memory Report at c_bands before calling an iterative solver
           346 MiB given to the printing process from OS
             0 MiB allocation reported by mallinfo(arena+hblkhd)
         15191 MiB available memory on the node where the printing process lives
------------------
     ethr =  3.13E-08,  avg # of iterations =  4.6

     negative rho (up, down):  2.432E-02 0.000E+00

     total cpu time spent up to now is      249.4 secs

     total energy              =   -2705.02976868 Ry
     estimated scf accuracy    <       0.00002417 Ry

     iteration # 22     ecut=    60.00 Ry     beta= 0.20
     CG style diagonalization

---- Real-time Memory Report at c_bands before calling an iterative solver
           346 MiB given to the printing process from OS
             0 MiB allocation reported by mallinfo(arena+hblkhd)
         15205 MiB available memory on the node where the printing process lives
------------------
     ethr =  1.80E-08,  avg # of iterations =  4.7

     negative rho (up, down):  2.420E-02 0.000E+00

     total cpu time spent up to now is      263.6 secs

     End of self-consistent calculation

          k = 0.0000 0.0000 0.0000 (  5579 PWs)   bands (ev):

   -77.4419 -77.4138 -69.5944 -69.5380 -69.5214 -69.4988 -69.4656 -69.4455
   -40.8675 -40.8274 -40.8246 -40.8244 -40.8204 -40.8202 -35.8670 -35.8668
   -35.7959 -35.7911 -35.7909 -35.7746 -35.7624 -35.7622 -35.7418 -35.7333
   -35.6778 -35.6778 -35.6244 -35.5990 -35.5990 -35.5893 -35.5893 -35.5610
     5.8966  10.1418  10.4960  13.0180  13.0185  13.6873  13.6878  13.8345
    13.8349  13.9025  14.1408  14.1698  14.4991  14.4998  14.5486  14.5489
    14.8705  14.8710  14.9578  14.9583  14.9961  15.3662  15.3672  15.8436
    16.2672  16.2674  16.7963  16.9990  16.9994  17.0416  17.0420  17.1487
    17.1937  17.1940  17.2759  17.2759  17.3279  17.3727  17.3728  17.4336
    17.4339  17.8030  17.8039  20.1439  20.9642  20.9652  21.6038  21.9760

     occupation numbers 
     1.0000   1.0000   1.0000   1.0000   1.0000   1.0000   1.0000   1.0000
     1.0000   1.0000   1.0000   1.0000   1.0000   1.0000   1.0000   1.0000
     1.0000   1.0000   1.0000   1.0000   1.0000   1.0000   1.0000   1.0000
     1.0000   1.0000   1.0000   1.0000   1.0000   1.0000   1.0000   1.0000
     1.0000   1.0000   1.0000   1.0000   1.0000   1.0000   1.0000   1.0000
     1.0000   1.0000   1.0000   1.0000   1.0000   1.0000   1.0000   1.0000
     1.0000   1.0000   1.0000   1.0000   1.0000   1.0002   1.0002   1.0096
     1.0648   1.0648   0.9341   0.6951   0.6946   0.6367   0.6362   0.4895
     0.4299   0.4295   0.3293   0.3293   0.2726   0.2285   0.2285   0.1765
     0.1762   0.0223   0.0222   0.0000   0.0000   0.0000   0.0000   0.0000

          k = 0.0000 0.0000 0.1799 (  5585 PWs)   bands (ev):

   -77.4419 -77.4138 -69.5942 -69.5385 -69.5209 -69.4990 -69.4660 -69.4451
   -40.8676 -40.8275 -40.8247 -40.8245 -40.8204 -40.8202 -35.8672 -35.8670
   -35.8285 -35.7890 -35.7889 -35.7717 -35.7650 -35.7649 -35.7437 -35.6771
   -35.6771 -35.6719 -35.6258 -35.5981 -35.5981 -35.5903 -35.5902 -35.5896
     5.9528   9.2795  11.8542  13.0963  13.0969  13.3345  13.3924  13.3928
    14.1110  14.1754  14.1759  14.4517  14.4521  14.4671  14.5364  14.5367
    14.7565  14.7568  14.9633  14.9724  14.9725  15.4068  15.4080  15.5921
    16.1998  16.2823  16.2824  16.9668  16.9672  17.0552  17.0556  17.1729
    17.1943  17.1946  17.2965  17.2966  17.3495  17.3498  17.3886  17.3887
    17.8416  17.8425  18.2418  19.5262  20.5309  20.9784  20.9793  23.6742

     occupation numbers 
     1.0000   1.0000   1.0000   1.0000   1.0000   1.0000   1.0000   1.0000
     1.0000   1.0000   1.0000   1.0000   1.0000   1.0000   1.0000   1.0000
     1.0000   1.0000   1.0000   1.0000   1.0000   1.0000   1.0000   1.0000
     1.0000   1.0000   1.0000   1.0000   1.0000   1.0000   1.0000   1.0000
     1.0000   1.0000   1.0000   1.0000   1.0000   1.0000   1.0000   1.0000
     1.0000   1.0000   1.0000   1.0000   1.0000   1.0000   1.0000   1.0000
     1.0000   1.0000   1.0000   1.0000   1.0000   1.0003   1.0003   1.0016
     1.0533   1.0673   1.0673   0.7381   0.7375   0.6180   0.6174   0.4571
     0.4292   0.4288   0.3061   0.3060   0.2507   0.2504   0.2141   0.2140
     0.0171   0.0170   0.0006   0.0000   0.0000   0.0000   0.0000   0.0000

          k = 0.0000 0.2886 0.0000 (  5528 PWs)   bands (ev):

   -77.4418 -77.4138 -69.5842 -69.5377 -69.5277 -69.4926 -69.4692 -69.4518
   -40.8677 -40.8275 -40.8249 -40.8241 -40.8205 -40.8202 -35.8942 -35.8735
   -35.8093 -35.8007 -35.7833 -35.7737 -35.7595 -35.7517 -35.7318 -35.7082
   -35.6692 -35.6607 -35.6426 -35.6169 -35.5924 -35.5890 -35.5872 -35.5595
     6.5019  10.6865  11.1295  12.1049  13.2078  13.4514  13.5589  13.6882
    13.9000  13.9805  14.1048  14.2990  14.4703  14.4864  14.6167  14.6592
    14.8689  14.8775  15.1786  15.2955  15.3243  15.4604  15.5208  15.8276
    15.9121  16.0581  16.6020  16.6599  16.8816  16.8932  16.9859  16.9896
    17.0505  17.1443  17.1933  17.2113  17.2746  17.2809  17.3008  17.3272
    17.4421  17.5042  17.7632  18.5776  19.3789  20.1456  20.6703  21.4324

     occupation numbers 
     1.0000   1.0000   1.0000   1.0000   1.0000   1.0000   1.0000   1.0000
     1.0000   1.0000   1.0000   1.0000   1.0000   1.0000   1.0000   1.0000
     1.0000   1.0000   1.0000   1.0000   1.0000   1.0000   1.0000   1.0000
     1.0000   1.0000   1.0000   1.0000   1.0000   1.0000   1.0000   1.0000
     1.0000   1.0000   1.0000   1.0000   1.0000   1.0000   1.0000   1.0000
     1.0000   1.0000   1.0000   1.0000   1.0000   1.0000   1.0000   1.0000
     1.0000   1.0000   1.0000   1.0001   1.0001   1.0005   1.0009   1.0087
     1.0145   1.0307   1.0586   1.0335   0.8443   0.8306   0.7128   0.7077
     0.6244   0.4953   0.4305   0.4074   0.3308   0.3236   0.3014   0.2732
     0.1699   0.1270   0.0291   0.0000   0.0000   0.0000   0.0000   0.0000

          k = 0.0000 0.2886 0.1799 (  5555 PWs)   bands (ev):

   -77.4418 -77.4138 -69.5841 -69.5381 -69.5273 -69.4930 -69.4696 -69.4514
   -40.8678 -40.8276 -40.8249 -40.8241 -40.8206 -40.8203 -35.8942 -35.8783
   -35.8289 -35.8004 -35.7829 -35.7718 -35.7602 -35.7557 -35.7103 -35.6849
   -35.6690 -35.6564 -35.6394 -35.6158 -35.5925 -35.5914 -35.5882 -35.5839
     6.5457  10.0426  11.7961  12.3806  13.2109  13.3085  13.5264  13.7095
    13.8308  13.8978  14.1974  14.3111  14.3599  14.4248  14.7291  14.7597
    14.8959  15.0024  15.0675  15.2838  15.3097  15.3731  15.5839  15.6764
    15.9693  16.0299  16.4208  16.6165  16.6832  16.8408  16.8446  16.9297
    17.0589  17.1542  17.2028  17.2079  17.3076  17.3430  17.3867  17.4185
    17.5383  17.8035  18.2688  18.6119  19.2214  19.3966  20.1900  21.2537

     occupation numbers 
     1.0000   1.0000   1.0000   1.0000   1.0000   1.0000   1.0000   1.0000
     1.0000   1.0000   1.0000   1.0000   1.0000   1.0000   1.0000   1.0000
     1.0000   1.0000   1.0000   1.0000   1.0000   1.0000   1.0000   1.0000
     1.0000   1.0000   1.0000   1.0000   1.0000   1.0000   1.0000   1.0000
     1.0000   1.0000   1.0000   1.0000   1.0000   1.0000   1.0000   1.0000
     1.0000   1.0000   1.0000   1.0000   1.0000   1.0000   1.0000   1.0000
     1.0000   1.0000   1.0000   1.0001   1.0001   1.0002   1.0015   1.0031
     1.0199   1.0269   1.0828   1.0533   1.0206   0.8896   0.8855   0.7859
     0.6128   0.4820   0.4183   0.4118   0.2940   0.2572   0.2157   0.1885
     0.1072   0.0223   0.0005   0.0000   0.0000   0.0000   0.0000   0.0000

          k = 0.0000-0.5772 0.0000 (  5570 PWs)   bands (ev):

   -77.4418 -77.4137 -69.5693 -69.5431 -69.5336 -69.4830 -69.4736 -69.4612
   -40.8681 -40.8278 -40.8253 -40.8239 -40.8208 -40.8204 -35.9138 -35.8799
   -35.8134 -35.7925 -35.7874 -35.7745 -35.7569 -35.7534 -35.7182 -35.6951
   -35.6744 -35.6589 -35.6469 -35.6238 -35.5903 -35.5887 -35.5820 -35.5562
     7.4082  10.5392  12.2056  12.3617  12.5659  12.9997  13.3049  13.4131
    13.8356  14.5218  14.5403  14.5642  14.5778  14.6222  14.6397  14.7043
    14.7203  14.8865  15.0095  15.1184  15.3200  15.3983  15.4897  15.8361
    15.9300  15.9535  16.4980  16.5885  16.7164  16.8211  16.9833  16.9988
    17.0699  17.1064  17.1166  17.1945  17.2019  17.2413  17.2620  17.2930
    17.3667  17.5002  17.9129  18.0232  18.0619  18.1704  18.2878  21.1626

     occupation numbers 
     1.0000   1.0000   1.0000   1.0000   1.0000   1.0000   1.0000   1.0000
     1.0000   1.0000   1.0000   1.0000   1.0000   1.0000   1.0000   1.0000
     1.0000   1.0000   1.0000   1.0000   1.0000   1.0000   1.0000   1.0000
     1.0000   1.0000   1.0000   1.0000   1.0000   1.0000   1.0000   1.0000
     1.0000   1.0000   1.0000   1.0000   1.0000   1.0000   1.0000   1.0000
     1.0000   1.0000   1.0000   1.0000   1.0000   1.0000   1.0000   1.0000
     1.0000   1.0000   1.0000   1.0000   1.0001   1.0003   1.0007   1.0092
     1.0161   1.0183   1.0810   1.0631   0.9993   0.9100   0.7162   0.6953
     0.5976   0.5472   0.5331   0.4290   0.4194   0.3701   0.3454   0.3099
     0.2342   0.1295   0.0102   0.0043   0.0031   0.0012   0.0004   0.0000

          k = 0.0000-0.5772 0.1799 (  5548 PWs)   bands (ev):

   -77.4418 -77.4137 -69.5693 -69.5428 -69.5336 -69.4838 -69.4737 -69.4603
   -40.8681 -40.8277 -40.8253 -40.8238 -40.8208 -40.8203 -35.9136 -35.8884
   -35.8258 -35.7943 -35.7890 -35.7632 -35.7513 -35.7503 -35.7203 -35.6813
   -35.6603 -35.6593 -35.6429 -35.6231 -35.5910 -35.5896 -35.5813 -35.5802
     7.4312  10.6353  11.7168  12.3370  12.7827  13.0497  13.4335  13.4601
    13.6637  14.3015  14.4478  14.4954  14.4975  14.6195  14.7098  14.7854
    14.9058  15.0720  15.0958  15.1798  15.1982  15.5843  15.6629  15.7326
    15.8840  16.0838  16.1377  16.5555  16.5594  16.7316  16.8909  16.9133
    16.9897  17.0502  17.0787  17.1125  17.2892  17.3561  17.4393  17.4520
    17.5512  17.6850  17.7388  17.9641  18.2072  18.5436  19.2270  20.8994

     occupation numbers 
     1.0000   1.0000   1.0000   1.0000   1.0000   1.0000   1.0000   1.0000
     1.0000   1.0000   1.0000   1.0000   1.0000   1.0000   1.0000   1.0000
     1.0000   1.0000   1.0000   1.0000   1.0000   1.0000   1.0000   1.0000
     1.0000   1.0000   1.0000   1.0000   1.0000   1.0000   1.0000   1.0000
     1.0000   1.0000   1.0000   1.0000   1.0000   1.0000   1.0000   1.0000
     1.0000   1.0000   1.0000   1.0000   1.0000   1.0000   1.0000   1.0000
     1.0000   1.0000   1.0000   1.0000   1.0000   1.0015   1.0028   1.0046
     1.0123   1.0343   1.0428   1.0719   1.0710   0.9884   0.8333   0.8064
     0.7076   0.6248   0.5853   0.5388   0.3142   0.2443   0.1720   0.1624
     0.1003   0.0475   0.0340   0.0069   0.0008   0.0000   0.0000   0.0000

          k = 0.2500 0.1443 0.0000 (  5528 PWs)   bands (ev):

   -77.4418 -77.4137 -69.5842 -69.5377 -69.5277 -69.4926 -69.4692 -69.4518
   -40.8677 -40.8275 -40.8248 -40.8242 -40.8204 -40.8203 -35.8940 -35.8738
   -35.8094 -35.8007 -35.7832 -35.7737 -35.7594 -35.7518 -35.7318 -35.7083
   -35.6692 -35.6607 -35.6425 -35.6169 -35.5924 -35.5889 -35.5871 -35.5595
     6.5022  10.6867  11.1297  12.1053  13.2073  13.4516  13.5592  13.6883
    13.8999  13.9807  14.1047  14.2990  14.4706  14.4863  14.6168  14.6593
    14.8690  14.8776  15.1788  15.2960  15.3243  15.4600  15.5198  15.8276
    15.9125  16.0577  16.6021  16.6604  16.8810  16.8932  16.9855  16.9896
    17.0504  17.1441  17.1931  17.2113  17.2747  17.2808  17.3010  17.3269
    17.4421  17.5043  17.7626  18.5785  19.3780  20.1466  20.6716  21.4323

     occupation numbers 
     1.0000   1.0000   1.0000   1.0000   1.0000   1.0000   1.0000   1.0000
     1.0000   1.0000   1.0000   1.0000   1.0000   1.0000   1.0000   1.0000
     1.0000   1.0000   1.0000   1.0000   1.0000   1.0000   1.0000   1.0000
     1.0000   1.0000   1.0000   1.0000   1.0000   1.0000   1.0000   1.0000
     1.0000   1.0000   1.0000   1.0000   1.0000   1.0000   1.0000   1.0000
     1.0000   1.0000   1.0000   1.0000   1.0000   1.0000   1.0000   1.0000
     1.0000   1.0000   1.0000   1.0001   1.0001   1.0005   1.0009   1.0087
     1.0145   1.0306   1.0586   1.0333   0.8449   0.8306   0.7132   0.7078
     0.6246   0.4957   0.4307   0.4075   0.3307   0.3237   0.3012   0.2735
     0.1698   0.1269   0.0292   0.0000   0.0000   0.0000   0.0000   0.0000

          k = 0.2500 0.1443 0.1799 (  5555 PWs)   bands (ev):

   -77.4418 -77.4138 -69.5841 -69.5379 -69.5275 -69.4930 -69.4695 -69.4514
   -40.8678 -40.8276 -40.8248 -40.8243 -40.8205 -40.8203 -35.8939 -35.8770
   -35.8326 -35.8001 -35.7853 -35.7699 -35.7572 -35.7563 -35.7104 -35.6797
   -35.6696 -35.6565 -35.6453 -35.6171 -35.5930 -35.5909 -35.5866 -35.5829
     6.5460  10.0535  11.6654  12.5332  13.2815  13.3042  13.5423  13.6951
    13.7017  14.0507  14.1230  14.2141  14.4067  14.4835  14.6861  14.7675
    14.8349  14.9370  15.1843  15.2902  15.3609  15.4603  15.5295  15.6481
    15.9501  15.9911  16.3927  16.5352  16.7046  16.8366  16.9077  16.9466
    17.0748  17.1289  17.1456  17.1985  17.2561  17.3296  17.3329  17.3996
    17.5706  17.8899  18.0812  18.5526  19.6201  19.7748  20.4506  21.0969

     occupation numbers 
     1.0000   1.0000   1.0000   1.0000   1.0000   1.0000   1.0000   1.0000
     1.0000   1.0000   1.0000   1.0000   1.0000   1.0000   1.0000   1.0000
     1.0000   1.0000   1.0000   1.0000   1.0000   1.0000   1.0000   1.0000
     1.0000   1.0000   1.0000   1.0000   1.0000   1.0000   1.0000   1.0000
     1.0000   1.0000   1.0000   1.0000   1.0000   1.0000   1.0000   1.0000
     1.0000   1.0000   1.0000   1.0000   1.0000   1.0000   1.0000   1.0000
     1.0000   1.0000   1.0000   1.0001   1.0002   1.0005   1.0009   1.0025
     1.0179   1.0222   1.0811   1.0760   1.0073   0.8940   0.8131   0.7645
     0.5908   0.5163   0.4936   0.4238   0.3524   0.2708   0.2674   0.2045
     0.0907   0.0121   0.0026   0.0000   0.0000   0.0000   0.0000   0.0000

          k = 0.2500 0.4329 0.0000 (  5551 PWs)   bands (ev):

   -77.4418 -77.4137 -69.5700 -69.5387 -69.5372 -69.4830 -69.4735 -69.4612
   -40.8681 -40.8277 -40.8250 -40.8242 -40.8210 -40.8201 -35.9003 -35.8780
   -35.8330 -35.8057 -35.7895 -35.7865 -35.7548 -35.7274 -35.7091 -35.6931
   -35.6825 -35.6606 -35.6354 -35.6252 -35.6023 -35.5900 -35.5780 -35.5545
     7.3442  10.9914  12.0496  12.2038  12.3401  13.1689  13.3047  13.6856
    13.7471  13.9943  14.3571  14.4266  14.6207  14.6534  14.7592  14.8452
    15.0250  15.1056  15.1443  15.2005  15.2330  15.2863  15.4665  15.7139
    15.7473  15.9653  16.0951  16.5792  16.7095  16.7532  16.8912  16.9113
    17.0089  17.0839  17.1175  17.1903  17.2518  17.2577  17.4040  17.4276
    17.5864  17.6235  17.7522  17.8737  17.9282  19.2900  19.3033  19.7073

     occupation numbers 
     1.0000   1.0000   1.0000   1.0000   1.0000   1.0000   1.0000   1.0000
     1.0000   1.0000   1.0000   1.0000   1.0000   1.0000   1.0000   1.0000
     1.0000   1.0000   1.0000   1.0000   1.0000   1.0000   1.0000   1.0000
     1.0000   1.0000   1.0000   1.0000   1.0000   1.0000   1.0000   1.0000
     1.0000   1.0000   1.0000   1.0000   1.0000   1.0000   1.0000   1.0000
     1.0000   1.0000   1.0000   1.0000   1.0000   1.0000   1.0000   1.0000
     1.0000   1.0000   1.0000   1.0000   1.0001   1.0001   1.0005   1.0040
     1.0051   1.0194   1.0361   1.0659   1.0040   0.9717   0.8329   0.8088
     0.6817   0.5783   0.5318   0.4343   0.3576   0.3505   0.2006   0.1812
     0.0833   0.0679   0.0312   0.0136   0.0091   0.0000   0.0000   0.0000

          k = 0.2500 0.4329 0.1799 (  5544 PWs)   bands (ev):

   -77.4418 -77.4137 -69.5699 -69.5386 -69.5371 -69.4837 -69.4738 -69.4603
   -40.8681 -40.8277 -40.8250 -40.8241 -40.8210 -40.8201 -35.9061 -35.8785
   -35.8369 -35.8158 -35.7901 -35.7823 -35.7502 -35.7252 -35.6987 -35.6912
   -35.6691 -35.6524 -35.6353 -35.6240 -35.6044 -35.5893 -35.5784 -35.5776
     7.3707  11.1080  11.4354  12.3780  12.7421  13.1402  13.1909  13.5078
    13.7826  14.0057  14.2769  14.6003  14.6748  14.7398  14.8441  14.9022
    14.9369  15.0873  15.1242  15.1764  15.2126  15.2567  15.4047  15.7193
    15.8433  15.9128  16.1288  16.5609  16.5863  16.7287  16.8125  16.8622
    16.9300  16.9834  17.1234  17.2238  17.2572  17.3377  17.4521  17.5397
    17.6606  17.7770  17.9341  18.1448  18.2841  18.4274  19.0543  19.6112

     occupation numbers 
     1.0000   1.0000   1.0000   1.0000   1.0000   1.0000   1.0000   1.0000
     1.0000   1.0000   1.0000   1.0000   1.0000   1.0000   1.0000   1.0000
     1.0000   1.0000   1.0000   1.0000   1.0000   1.0000   1.0000   1.0000
     1.0000   1.0000   1.0000   1.0000   1.0000   1.0000   1.0000   1.0000
     1.0000   1.0000   1.0000   1.0000   1.0000   1.0000   1.0000   1.0000
     1.0000   1.0000   1.0000   1.0000   1.0000   1.0000   1.0000   1.0000
     1.0000   1.0000   1.0000   1.0000   1.0000   1.0001   1.0003   1.0042
     1.0096   1.0146   1.0413   1.0707   1.0638   0.9906   0.9185   0.8663
     0.7855   0.7160   0.5238   0.3917   0.3511   0.2625   0.1624   0.1064
     0.0549   0.0266   0.0087   0.0015   0.0004   0.0001   0.0000   0.0000

          k =-0.5000-0.2886 0.0000 (  5570 PWs)   bands (ev):

   -77.4418 -77.4137 -69.5693 -69.5431 -69.5336 -69.4830 -69.4736 -69.4612
   -40.8681 -40.8278 -40.8252 -40.8240 -40.8207 -40.8204 -35.9137 -35.8801
   -35.8134 -35.7925 -35.7873 -35.7745 -35.7570 -35.7533 -35.7183 -35.6951
   -35.6744 -35.6589 -35.6469 -35.6237 -35.5902 -35.5887 -35.5820 -35.5562
     7.4088  10.5398  12.2061  12.3622  12.5663  12.9996  13.3054  13.4124
    13.8358  14.5219  14.5411  14.5640  14.5780  14.6222  14.6395  14.7045
    14.7210  14.8869  15.0094  15.1182  15.3201  15.3985  15.4898  15.8355
    15.9299  15.9531  16.4966  16.5883  16.7164  16.8209  16.9831  16.9981
    17.0695  17.1064  17.1161  17.1943  17.2020  17.2414  17.2621  17.2925
    17.3663  17.4998  17.9136  18.0237  18.0613  18.1714  18.2882  21.1603

     occupation numbers 
     1.0000   1.0000   1.0000   1.0000   1.0000   1.0000   1.0000   1.0000
     1.0000   1.0000   1.0000   1.0000   1.0000   1.0000   1.0000   1.0000
     1.0000   1.0000   1.0000   1.0000   1.0000   1.0000   1.0000   1.0000
     1.0000   1.0000   1.0000   1.0000   1.0000   1.0000   1.0000   1.0000
     1.0000   1.0000   1.0000   1.0000   1.0000   1.0000   1.0000   1.0000
     1.0000   1.0000   1.0000   1.0000   1.0000   1.0000   1.0000   1.0000
     1.0000   1.0000   1.0000   1.0000   1.0001   1.0003   1.0007   1.0092
     1.0160   1.0182   1.0811   1.0631   0.9993   0.9101   0.7165   0.6962
     0.5981   0.5471   0.5337   0.4292   0.4193   0.3701   0.3453   0.3106
     0.2346   0.1298   0.0101   0.0043   0.0031   0.0012   0.0004   0.0000

          k =-0.5000-0.2886 0.1799 (  5550 PWs)   bands (ev):

   -77.4418 -77.4137 -69.5693 -69.5428 -69.5336 -69.4838 -69.4737 -69.4604
   -40.8681 -40.8277 -40.8251 -40.8240 -40.8207 -40.8204 -35.9134 -35.8886
   -35.8259 -35.7943 -35.7890 -35.7634 -35.7512 -35.7504 -35.7204 -35.6813
   -35.6604 -35.6592 -35.6429 -35.6231 -35.5910 -35.5896 -35.5813 -35.5801
     7.4318  10.6358  11.7174  12.3377  12.7829  13.0497  13.4328  13.4604
    13.6637  14.3016  14.4478  14.4954  14.4981  14.6200  14.7099  14.7857
    14.9058  15.0722  15.0957  15.1795  15.1984  15.5840  15.6628  15.7322
    15.8835  16.0841  16.1375  16.5554  16.5593  16.7314  16.8908  16.9131
    16.9894  17.0499  17.0784  17.1119  17.2886  17.3561  17.4394  17.4518
    17.5516  17.6848  17.7392  17.9647  18.2075  18.5411  19.2281  20.8983

     occupation numbers 
     1.0000   1.0000   1.0000   1.0000   1.0000   1.0000   1.0000   1.0000
     1.0000   1.0000   1.0000   1.0000   1.0000   1.0000   1.0000   1.0000
     1.0000   1.0000   1.0000   1.0000   1.0000   1.0000   1.0000   1.0000
     1.0000   1.0000   1.0000   1.0000   1.0000   1.0000   1.0000   1.0000
     1.0000   1.0000   1.0000   1.0000   1.0000   1.0000   1.0000   1.0000
     1.0000   1.0000   1.0000   1.0000   1.0000   1.0000   1.0000   1.0000
     1.0000   1.0000   1.0000   1.0000   1.0000   1.0015   1.0028   1.0046
     1.0123   1.0344   1.0427   1.0720   1.0711   0.9886   0.8335   0.8066
     0.7080   0.6253   0.5858   0.5396   0.3149   0.2443   0.1719   0.1626
     0.1001   0.0475   0.0340   0.0069   0.0008   0.0000   0.0000   0.0000

          k =-0.5000 0.0000 0.0000 (  5551 PWs)   bands (ev):

   -77.4418 -77.4137 -69.5699 -69.5387 -69.5372 -69.4830 -69.4735 -69.4612
   -40.8681 -40.8277 -40.8248 -40.8244 -40.8210 -40.8201 -35.9003 -35.8781
   -35.8329 -35.8057 -35.7894 -35.7866 -35.7548 -35.7274 -35.7091 -35.6931
   -35.6825 -35.6605 -35.6354 -35.6251 -35.6023 -35.5900 -35.5780 -35.5545
     7.3445  10.9913  12.0499  12.2041  12.3402  13.1689  13.3046  13.6856
    13.7471  13.9945  14.3572  14.4268  14.6206  14.6535  14.7593  14.8452
    15.0253  15.1057  15.1447  15.2003  15.2331  15.2863  15.4665  15.7138
    15.7472  15.9650  16.0948  16.5789  16.7093  16.7529  16.8912  16.9113
    17.0088  17.0837  17.1178  17.1904  17.2517  17.2574  17.4037  17.4275
    17.5864  17.6235  17.7523  17.8736  17.9281  19.2901  19.3035  19.7088

     occupation numbers 
     1.0000   1.0000   1.0000   1.0000   1.0000   1.0000   1.0000   1.0000
     1.0000   1.0000   1.0000   1.0000   1.0000   1.0000   1.0000   1.0000
     1.0000   1.0000   1.0000   1.0000   1.0000   1.0000   1.0000   1.0000
     1.0000   1.0000   1.0000   1.0000   1.0000   1.0000   1.0000   1.0000
     1.0000   1.0000   1.0000   1.0000   1.0000   1.0000   1.0000   1.0000
     1.0000   1.0000   1.0000   1.0000   1.0000   1.0000   1.0000   1.0000
     1.0000   1.0000   1.0000   1.0000   1.0001   1.0001   1.0005   1.0040
     1.0051   1.0194   1.0360   1.0659   1.0042   0.9720   0.8330   0.8087
     0.6818   0.5785   0.5314   0.4342   0.3576   0.3509   0.2009   0.1813
     0.0833   0.0679   0.0312   0.0136   0.0091   0.0000   0.0000   0.0000

          k =-0.5000 0.0000 0.1799 (  5544 PWs)   bands (ev):

   -77.4418 -77.4137 -69.5699 -69.5386 -69.5371 -69.4837 -69.4738 -69.4603
   -40.8681 -40.8277 -40.8248 -40.8243 -40.8210 -40.8201 -35.9060 -35.8785
   -35.8368 -35.8158 -35.7900 -35.7823 -35.7502 -35.7252 -35.6987 -35.6912
   -35.6691 -35.6524 -35.6353 -35.6239 -35.6044 -35.5893 -35.5784 -35.5776
     7.3710  11.1080  11.4357  12.3780  12.7422  13.1402  13.1908  13.5078
    13.7828  14.0058  14.2769  14.6004  14.6749  14.7396  14.8444  14.9021
    14.9370  15.0875  15.1241  15.1767  15.2130  15.2569  15.4047  15.7192
    15.8431  15.9127  16.1285  16.5606  16.5859  16.7284  16.8125  16.8622
    16.9300  16.9831  17.1234  17.2237  17.2569  17.3376  17.4518  17.5397
    17.6606  17.7769  17.9342  18.1450  18.2839  18.4279  19.0539  19.6104

     occupation numbers 
     1.0000   1.0000   1.0000   1.0000   1.0000   1.0000   1.0000   1.0000
     1.0000   1.0000   1.0000   1.0000   1.0000   1.0000   1.0000   1.0000
     1.0000   1.0000   1.0000   1.0000   1.0000   1.0000   1.0000   1.0000
     1.0000   1.0000   1.0000   1.0000   1.0000   1.0000   1.0000   1.0000
     1.0000   1.0000   1.0000   1.0000   1.0000   1.0000   1.0000   1.0000
     1.0000   1.0000   1.0000   1.0000   1.0000   1.0000   1.0000   1.0000
     1.0000   1.0000   1.0000   1.0000   1.0000   1.0001   1.0003   1.0042
     1.0096   1.0146   1.0413   1.0707   1.0639   0.9908   0.9185   0.8663
     0.7856   0.7164   0.5238   0.3919   0.3514   0.2626   0.1626   0.1064
     0.0549   0.0266   0.0087   0.0015   0.0004   0.0001   0.0000   0.0000

          k = 0.0000 0.2886-0.1799 (  5555 PWs)   bands (ev):

   -77.4418 -77.4138 -69.5841 -69.5379 -69.5275 -69.4930 -69.4695 -69.4514
   -40.8678 -40.8276 -40.8249 -40.8241 -40.8205 -40.8203 -35.8940 -35.8768
   -35.8326 -35.8001 -35.7854 -35.7698 -35.7573 -35.7562 -35.7103 -35.6797
   -35.6696 -35.6565 -35.6453 -35.6171 -35.5930 -35.5909 -35.5866 -35.5829
     6.5458  10.0533  11.6651  12.5329  13.2821  13.3042  13.5420  13.6949
    13.7017  14.0508  14.1226  14.2137  14.4069  14.4832  14.6860  14.7673
    14.8353  14.9371  15.1842  15.2904  15.3608  15.4602  15.5294  15.6485
    15.9500  15.9912  16.3930  16.5346  16.7047  16.8368  16.9078  16.9473
    17.0751  17.1292  17.1456  17.1985  17.2561  17.3295  17.3333  17.3993
    17.5704  17.8905  18.0811  18.5516  19.6210  19.7748  20.4494  21.0979

     occupation numbers 
     1.0000   1.0000   1.0000   1.0000   1.0000   1.0000   1.0000   1.0000
     1.0000   1.0000   1.0000   1.0000   1.0000   1.0000   1.0000   1.0000
     1.0000   1.0000   1.0000   1.0000   1.0000   1.0000   1.0000   1.0000
     1.0000   1.0000   1.0000   1.0000   1.0000   1.0000   1.0000   1.0000
     1.0000   1.0000   1.0000   1.0000   1.0000   1.0000   1.0000   1.0000
     1.0000   1.0000   1.0000   1.0000   1.0000   1.0000   1.0000   1.0000
     1.0000   1.0000   1.0000   1.0001   1.0002   1.0005   1.0009   1.0025
     1.0179   1.0222   1.0811   1.0761   1.0072   0.8938   0.8131   0.7635
     0.5904   0.5158   0.4936   0.4238   0.3524   0.2709   0.2670   0.2047
     0.0907   0.0120   0.0026   0.0000   0.0000   0.0000   0.0000   0.0000

          k =-0.2500 0.1443-0.1799 (  5555 PWs)   bands (ev):

   -77.4418 -77.4138 -69.5841 -69.5381 -69.5274 -69.4930 -69.4696 -69.4514
   -40.8678 -40.8276 -40.8248 -40.8243 -40.8205 -40.8203 -35.8940 -35.8785
   -35.8290 -35.8004 -35.7828 -35.7718 -35.7601 -35.7558 -35.7104 -35.6849
   -35.6689 -35.6565 -35.6394 -35.6158 -35.5925 -35.5914 -35.5882 -35.5839
     6.5459  10.0428  11.7964  12.3808  13.2105  13.3087  13.5266  13.7099
    13.8310  13.8976  14.1973  14.3109  14.3601  14.4252  14.7292  14.7597
    14.8957  15.0027  15.0675  15.2836  15.3096  15.3734  15.5839  15.6764
    15.9695  16.0294  16.4206  16.6169  16.6832  16.8405  16.8447  16.9290
    17.0589  17.1539  17.2028  17.2077  17.3074  17.3432  17.3864  17.4187
    17.5385  17.8030  18.2688  18.6130  19.2218  19.3953  20.1914  21.2520

     occupation numbers 
     1.0000   1.0000   1.0000   1.0000   1.0000   1.0000   1.0000   1.0000
     1.0000   1.0000   1.0000   1.0000   1.0000   1.0000   1.0000   1.0000
     1.0000   1.0000   1.0000   1.0000   1.0000   1.0000   1.0000   1.0000
     1.0000   1.0000   1.0000   1.0000   1.0000   1.0000   1.0000   1.0000
     1.0000   1.0000   1.0000   1.0000   1.0000   1.0000   1.0000   1.0000
     1.0000   1.0000   1.0000   1.0000   1.0000   1.0000   1.0000   1.0000
     1.0000   1.0000   1.0000   1.0001   1.0001   1.0002   1.0015   1.0031
     1.0199   1.0268   1.0828   1.0531   1.0206   0.8898   0.8854   0.7868
     0.6129   0.4824   0.4182   0.4120   0.2942   0.2570   0.2161   0.1884
     0.1071   0.0223   0.0005   0.0000   0.0000   0.0000   0.0000   0.0000

          k =-0.2500 0.4329-0.1799 (  5544 PWs)   bands (ev):

   -77.4418 -77.4137 -69.5699 -69.5386 -69.5371 -69.4837 -69.4738 -69.4603
   -40.8681 -40.8277 -40.8250 -40.8241 -40.8210 -40.8201 -35.9061 -35.8785
   -35.8369 -35.8158 -35.7901 -35.7823 -35.7502 -35.7252 -35.6987 -35.6912
   -35.6691 -35.6524 -35.6353 -35.6240 -35.6044 -35.5893 -35.5784 -35.5776
     7.3707  11.1080  11.4354  12.3780  12.7422  13.1402  13.1906  13.5080
    13.7825  14.0058  14.2768  14.6003  14.6747  14.7398  14.8448  14.9016
    14.9369  15.0872  15.1241  15.1767  15.2126  15.2569  15.4045  15.7191
    15.8434  15.9126  16.1289  16.5608  16.5863  16.7287  16.8126  16.8623
    16.9300  16.9833  17.1234  17.2239  17.2571  17.3376  17.4520  17.5397
    17.6604  17.7770  17.9343  18.1453  18.2843  18.4282  19.0534  19.6119

     occupation numbers 
     1.0000   1.0000   1.0000   1.0000   1.0000   1.0000   1.0000   1.0000
     1.0000   1.0000   1.0000   1.0000   1.0000   1.0000   1.0000   1.0000
     1.0000   1.0000   1.0000   1.0000   1.0000   1.0000   1.0000   1.0000
     1.0000   1.0000   1.0000   1.0000   1.0000   1.0000   1.0000   1.0000
     1.0000   1.0000   1.0000   1.0000   1.0000   1.0000   1.0000   1.0000
     1.0000   1.0000   1.0000   1.0000   1.0000   1.0000   1.0000   1.0000
     1.0000   1.0000   1.0000   1.0000   1.0000   1.0001   1.0003   1.0042
     1.0096   1.0145   1.0413   1.0707   1.0638   0.9905   0.9184   0.8662
     0.7855   0.7162   0.5238   0.3916   0.3512   0.2626   0.1624   0.1064
     0.0550   0.0266   0.0087   0.0015   0.0004   0.0001   0.0000   0.0000

     the Fermi energy is    17.2167 ev

!    total energy              =   -2705.02977892 Ry
     estimated scf accuracy    <       0.00000419 Ry
     smearing contrib. (-TS)   =      -0.07894778 Ry
     internal energy E=F+TS    =   -2704.95083115 Ry

     The total energy is F=E-TS. E is the sum of the following terms:
     one-electron contribution =   -1096.98411696 Ry
     hartree contribution      =     627.56002934 Ry
     xc contribution           =    -240.48803941 Ry
     ewald contribution        =   -1370.38030757 Ry
     one-center paw contrib.   =    -624.65839654 Ry
      -> PAW hartree energy AE =     912.76267151 Ry
      -> PAW hartree energy PS =    -906.29071516 Ry
      -> PAW xc energy AE      =    -538.05452320 Ry
      -> PAW xc energy PS      =     127.97218526 Ry
      -> total E_H with PAW    =     634.03198570 Ry
      -> total E_XC with PAW   =    -650.57037734 Ry

     convergence has been achieved in  22 iterations

     Writing all to output data dir ./tmp/fe6co2ge_nm_debug/fe6co2ge_nm_debug.save/ :
     XML data file, charge density, pseudopotentials, collected wavefunctions

     init_run     :      3.62s CPU      4.07s WALL (       1 calls)
     electrons    :    236.57s CPU    259.36s WALL (       1 calls)

     Called by init_run:
     wfcinit      :      1.71s CPU      1.93s WALL (       1 calls)
     wfcinit:atom :      0.01s CPU      0.02s WALL (      17 calls)
     wfcinit:wfcr :      1.52s CPU      1.74s WALL (      17 calls)
     potinit      :      1.01s CPU      1.17s WALL (       1 calls)
     hinit0       :      0.61s CPU      0.63s WALL (       1 calls)

     Called by electrons:
     c_bands      :    196.20s CPU    214.94s WALL (      22 calls)
     sum_band     :     19.14s CPU     22.03s WALL (      22 calls)
     v_of_rho     :      0.97s CPU      1.14s WALL (      23 calls)
     v_h          :      0.05s CPU      0.07s WALL (      23 calls)
     v_xc         :      0.92s CPU      1.06s WALL (      23 calls)
     newd         :      6.05s CPU      6.81s WALL (      23 calls)
     PAW_pot      :     14.22s CPU     14.43s WALL (      23 calls)
     mix_rho      :      0.83s CPU      1.00s WALL (      22 calls)

     Called by c_bands:
     init_us_2    :      1.00s CPU      1.03s WALL (     765 calls)
     ccgdiagg     :    164.24s CPU    179.11s WALL (     374 calls)
     wfcrot       :     32.79s CPU     36.84s WALL (     374 calls)

     Called by sum_band:
     sum_band:wei :      0.02s CPU      0.02s WALL (      22 calls)
     sum_band:loo :     13.40s CPU     15.50s WALL (      22 calls)
     sum_band:buf :      0.11s CPU      0.13s WALL (     374 calls)
     sum_band:ini :      0.52s CPU      0.53s WALL (     374 calls)
     sum_band:cal :      2.13s CPU      2.28s WALL (     374 calls)
     sum_band:bec :      0.03s CPU      0.03s WALL (     374 calls)
     addusdens    :      5.54s CPU      6.25s WALL (      22 calls)
                                        0.00s GPU  (      22 calls)
     addusd:skk   :      0.03s CPU      0.04s WALL (      66 calls)
                                        0.00s GPU  (      66 calls)

     Called by *cgdiagg:
     h_psi        :    138.06s CPU    153.92s WALL (   83887 calls)
     s_psi        :     20.34s CPU     21.75s WALL (  167400 calls)

     Called by h_psi:
     h_psi:calbec :     13.32s CPU     15.17s WALL (   83887 calls)
     vloc_psi     :     95.38s CPU    106.71s WALL (   83887 calls)
     add_vuspsi   :     28.46s CPU     31.13s WALL (   83887 calls)
     hs_1psi      :    121.60s CPU    134.51s WALL (   83513 calls)
     s_1psi       :     19.59s CPU     20.71s WALL (   83513 calls)

     General routines
     calbec       :     25.05s CPU     27.80s WALL (  167774 calls)
     fft          :      0.68s CPU      0.92s WALL (     297 calls)
     ffts         :      0.78s CPU      0.90s WALL (     770 calls)
     fftw         :     88.86s CPU    100.70s WALL (  256922 calls)
     interpolate  :      0.34s CPU      0.37s WALL (      23 calls)

     Parallel routines

     PAW routines
     PAW_pot      :     14.22s CPU     14.43s WALL (      23 calls)
     PAW_symme    :      0.00s CPU      0.00s WALL (      45 calls)

     PWSCF        :   4m 0.45s CPU   4m23.89s WALL


   This run was terminated on:  13:45:32  17Mar2026            

=------------------------------------------------------------------------------=
   JOB DONE.
=------------------------------------------------------------------------------=
