
     Program PWSCF v.7.4.1 starts on 17Mar2026 at 12: 9: 4 

     This program is part of the open-source Quantum ESPRESSO suite
     for quantum simulation of materials; please cite
         "P. Giannozzi et al., J. Phys.:Condens. Matter 21 395502 (2009);
         "P. Giannozzi et al., J. Phys.:Condens. Matter 29 465901 (2017);
         "P. Giannozzi et al., J. Chem. Phys. 152 154105 (2020);
          URL http://www.quantum-espresso.org", 
     in publications or presentations arising from this work. More details at
     http://www.quantum-espresso.org/quote

     Parallel version (MPI), running on     2 processors

     MPI processes distributed on     1 nodes
     17136 MiB available memory on the printing compute node when the environment starts

     Reading input from scf_vfe15_fim_debug.in

     Current dimensions of program PWSCF are:
     Max number of different atomic species (ntypx) = 10
     Max number of k-points (npk) =  40000
     Max angular momentum in pseudopotentials (lmaxx) =  4
     file V.pbesol-spnl-kjpaw_psl.1.0.0.UPF: wavefunction(s)  3P 3D renormalized
     file Fe.pbesol-spn-kjpaw_psl.1.0.0.UPF: wavefunction(s)  3P 3D renormalized

     IMPORTANT: XC functional enforced from input :
     Exchange-correlation= PBESOL
                           (   1   4  10   8   0   0   0)
     Any further DFT definition will be discarded
     Please, verify this is what you really want

     Message from routine setup:
     using ibrav=0 with symmetry is DISCOURAGED, use correct ibrav instead

     R & G space division:  proc/nbgrp/npool/nimage =       2
     Subspace diagonalization in iterative solution of the eigenvalue problem:
     a serial algorithm will be used


     Parallelization info
     --------------------
     sticks:   dense  smooth     PW     G-vecs:    dense   smooth      PW
     Min        2214    1108    310               110787    39114    5876
     Max        2215    1109    311               110788    39115    5877
     Sum        4429    2217    621               221575    78229   11753

     Using Slab Decomposition



     bravais-lattice index     =            0
     lattice parameter (alat)  =      10.7653  a.u.
     unit-cell volume          =    1247.6170 (a.u.)^3
     number of atoms/cell      =           16
     number of atomic types    =            2
     number of electrons       =       253.00
     number of Kohn-Sham states=          152
     kinetic-energy cutoff     =      60.0000  Ry
     charge density cutoff     =     480.0000  Ry
     scf convergence threshold =      1.0E-05
     mixing beta               =       0.2000
     number of iterations used =            8  local-TF  mixing
     Exchange-correlation= PBESOL
                           (   1   4  10   8   0   0   0)

     celldm(1)=  10.765324  celldm(2)=   0.000000  celldm(3)=   0.000000
     celldm(4)=   0.000000  celldm(5)=   0.000000  celldm(6)=   0.000000

     crystal axes: (cart. coord. in units of alat)
               a(1) = (   1.000000   0.000000   0.000000 )  
               a(2) = (   0.000000   1.000000   0.000000 )  
               a(3) = (   0.000000   0.000000   1.000000 )  

     reciprocal axes: (cart. coord. in units 2 pi/alat)
               b(1) = (  1.000000  0.000000  0.000000 )  
               b(2) = (  0.000000  1.000000  0.000000 )  
               b(3) = (  0.000000  0.000000  1.000000 )  


     PseudoPot. # 1 for V  read from file:
     ./pseudo/V.pbesol-spnl-kjpaw_psl.1.0.0.UPF
     MD5 check sum: d709b3179d4cab0f72010db8785d50db
     Pseudo is Projector augmented-wave + core cor, Zval = 13.0
     Generated using &quot;atomic&quot; code by A. Dal Corso  v.6.3
     Shape of augmentation charge: PSQ
     Using radial grid of 1181 points,  6 beta functions with: 
                l(1) =   0
                l(2) =   0
                l(3) =   1
                l(4) =   1
                l(5) =   2
                l(6) =   2
     Q(r) pseudized with 0 coefficients 


     PseudoPot. # 2 for Fe read from file:
     ./pseudo/Fe.pbesol-spn-kjpaw_psl.1.0.0.UPF
     MD5 check sum: e30d5f36a6f0cb983ee41abee56170da
     Pseudo is Projector augmented-wave + core cor, Zval = 16.0
     Generated using &quot;atomic&quot; code by A. Dal Corso  v.6.3
     Shape of augmentation charge: PSQ
     Using radial grid of 1191 points,  6 beta functions with: 
                l(1) =   0
                l(2) =   0
                l(3) =   1
                l(4) =   1
                l(5) =   2
                l(6) =   2
     Q(r) pseudized with 0 coefficients 


     atomic species   valence    mass     pseudopotential
     V                13.00    50.94150     V ( 1.00)
     Fe               16.00    55.84500     Fe( 1.00)

     Starting magnetic structure 
     atomic species   magnetization
     V              -0.250
     Fe              0.600

     48 Sym. Ops., with inversion, found


                                    s                        frac. trans.

      isym =  1     identity                                     

 cryst.   s( 1) = (     1          0          0      )
                  (     0          1          0      )
                  (     0          0          1      )

 cart.    s( 1) = (  1.0000000  0.0000000  0.0000000 )
                  (  0.0000000  1.0000000  0.0000000 )
                  (  0.0000000  0.0000000  1.0000000 )


      isym =  2     180 deg rotation - cart. axis [0,0,1]        

 cryst.   s( 2) = (    -1          0          0      )
                  (     0         -1          0      )
                  (     0          0          1      )

 cart.    s( 2) = ( -1.0000000  0.0000000  0.0000000 )
                  (  0.0000000 -1.0000000  0.0000000 )
                  (  0.0000000  0.0000000  1.0000000 )


      isym =  3     180 deg rotation - cart. axis [0,1,0]        

 cryst.   s( 3) = (    -1          0          0      )
                  (     0          1          0      )
                  (     0          0         -1      )

 cart.    s( 3) = ( -1.0000000  0.0000000  0.0000000 )
                  (  0.0000000  1.0000000  0.0000000 )
                  (  0.0000000  0.0000000 -1.0000000 )


      isym =  4     180 deg rotation - cart. axis [1,0,0]        

 cryst.   s( 4) = (     1          0          0      )
                  (     0         -1          0      )
                  (     0          0         -1      )

 cart.    s( 4) = (  1.0000000  0.0000000  0.0000000 )
                  (  0.0000000 -1.0000000  0.0000000 )
                  (  0.0000000  0.0000000 -1.0000000 )


      isym =  5     180 deg rotation - cart. axis [1,1,0]        

 cryst.   s( 5) = (     0          1          0      )
                  (     1          0          0      )
                  (     0          0         -1      )

 cart.    s( 5) = (  0.0000000  1.0000000  0.0000000 )
                  (  1.0000000  0.0000000  0.0000000 )
                  (  0.0000000  0.0000000 -1.0000000 )


      isym =  6     180 deg rotation - cart. axis [1,-1,0]       

 cryst.   s( 6) = (     0         -1          0      )
                  (    -1          0          0      )
                  (     0          0         -1      )

 cart.    s( 6) = (  0.0000000 -1.0000000  0.0000000 )
                  ( -1.0000000  0.0000000  0.0000000 )
                  (  0.0000000  0.0000000 -1.0000000 )


      isym =  7      90 deg rotation - cart. axis [0,0,-1]       

 cryst.   s( 7) = (     0         -1          0      )
                  (     1          0          0      )
                  (     0          0          1      )

 cart.    s( 7) = (  0.0000000  1.0000000  0.0000000 )
                  ( -1.0000000  0.0000000  0.0000000 )
                  (  0.0000000  0.0000000  1.0000000 )


      isym =  8      90 deg rotation - cart. axis [0,0,1]        

 cryst.   s( 8) = (     0          1          0      )
                  (    -1          0          0      )
                  (     0          0          1      )

 cart.    s( 8) = (  0.0000000 -1.0000000  0.0000000 )
                  (  1.0000000  0.0000000  0.0000000 )
                  (  0.0000000  0.0000000  1.0000000 )


      isym =  9     180 deg rotation - cart. axis [1,0,1]        

 cryst.   s( 9) = (     0          0          1      )
                  (     0         -1          0      )
                  (     1          0          0      )

 cart.    s( 9) = (  0.0000000  0.0000000  1.0000000 )
                  (  0.0000000 -1.0000000  0.0000000 )
                  (  1.0000000  0.0000000  0.0000000 )


      isym = 10     180 deg rotation - cart. axis [-1,0,1]       

 cryst.   s(10) = (     0          0         -1      )
                  (     0         -1          0      )
                  (    -1          0          0      )

 cart.    s(10) = (  0.0000000  0.0000000 -1.0000000 )
                  (  0.0000000 -1.0000000  0.0000000 )
                  ( -1.0000000  0.0000000  0.0000000 )


      isym = 11      90 deg rotation - cart. axis [0,1,0]        

 cryst.   s(11) = (     0          0         -1      )
                  (     0          1          0      )
                  (     1          0          0      )

 cart.    s(11) = (  0.0000000  0.0000000  1.0000000 )
                  (  0.0000000  1.0000000  0.0000000 )
                  ( -1.0000000  0.0000000  0.0000000 )


      isym = 12      90 deg rotation - cart. axis [0,-1,0]       

 cryst.   s(12) = (     0          0          1      )
                  (     0          1          0      )
                  (    -1          0          0      )

 cart.    s(12) = (  0.0000000  0.0000000 -1.0000000 )
                  (  0.0000000  1.0000000  0.0000000 )
                  (  1.0000000  0.0000000  0.0000000 )


      isym = 13     180 deg rotation - cart. axis [0,1,1]        

 cryst.   s(13) = (    -1          0          0      )
                  (     0          0          1      )
                  (     0          1          0      )

 cart.    s(13) = ( -1.0000000  0.0000000  0.0000000 )
                  (  0.0000000  0.0000000  1.0000000 )
                  (  0.0000000  1.0000000  0.0000000 )


      isym = 14     180 deg rotation - cart. axis [0,1,-1]       

 cryst.   s(14) = (    -1          0          0      )
                  (     0          0         -1      )
                  (     0         -1          0      )

 cart.    s(14) = ( -1.0000000  0.0000000  0.0000000 )
                  (  0.0000000  0.0000000 -1.0000000 )
                  (  0.0000000 -1.0000000  0.0000000 )


      isym = 15      90 deg rotation - cart. axis [-1,0,0]       

 cryst.   s(15) = (     1          0          0      )
                  (     0          0         -1      )
                  (     0          1          0      )

 cart.    s(15) = (  1.0000000  0.0000000  0.0000000 )
                  (  0.0000000  0.0000000  1.0000000 )
                  (  0.0000000 -1.0000000  0.0000000 )


      isym = 16      90 deg rotation - cart. axis [1,0,0]        

 cryst.   s(16) = (     1          0          0      )
                  (     0          0          1      )
                  (     0         -1          0      )

 cart.    s(16) = (  1.0000000  0.0000000  0.0000000 )
                  (  0.0000000  0.0000000 -1.0000000 )
                  (  0.0000000  1.0000000  0.0000000 )


      isym = 17     120 deg rotation - cart. axis [-1,-1,-1]     

 cryst.   s(17) = (     0          0          1      )
                  (     1          0          0      )
                  (     0          1          0      )

 cart.    s(17) = (  0.0000000  1.0000000  0.0000000 )
                  (  0.0000000  0.0000000  1.0000000 )
                  (  1.0000000  0.0000000  0.0000000 )


      isym = 18     120 deg rotation - cart. axis [-1,1,1]       

 cryst.   s(18) = (     0          0         -1      )
                  (    -1          0          0      )
                  (     0          1          0      )

 cart.    s(18) = (  0.0000000 -1.0000000  0.0000000 )
                  (  0.0000000  0.0000000  1.0000000 )
                  ( -1.0000000  0.0000000  0.0000000 )


      isym = 19     120 deg rotation - cart. axis [1,1,-1]       

 cryst.   s(19) = (     0          0         -1      )
                  (     1          0          0      )
                  (     0         -1          0      )

 cart.    s(19) = (  0.0000000  1.0000000  0.0000000 )
                  (  0.0000000  0.0000000 -1.0000000 )
                  ( -1.0000000  0.0000000  0.0000000 )


      isym = 20     120 deg rotation - cart. axis [1,-1,1]       

 cryst.   s(20) = (     0          0          1      )
                  (    -1          0          0      )
                  (     0         -1          0      )

 cart.    s(20) = (  0.0000000 -1.0000000  0.0000000 )
                  (  0.0000000  0.0000000 -1.0000000 )
                  (  1.0000000  0.0000000  0.0000000 )


      isym = 21     120 deg rotation - cart. axis [1,1,1]        

 cryst.   s(21) = (     0          1          0      )
                  (     0          0          1      )
                  (     1          0          0      )

 cart.    s(21) = (  0.0000000  0.0000000  1.0000000 )
                  (  1.0000000  0.0000000  0.0000000 )
                  (  0.0000000  1.0000000  0.0000000 )


      isym = 22     120 deg rotation - cart. axis [-1,1,-1]      

 cryst.   s(22) = (     0         -1          0      )
                  (     0          0         -1      )
                  (     1          0          0      )

 cart.    s(22) = (  0.0000000  0.0000000  1.0000000 )
                  ( -1.0000000  0.0000000  0.0000000 )
                  (  0.0000000 -1.0000000  0.0000000 )


      isym = 23     120 deg rotation - cart. axis [1,-1,-1]      

 cryst.   s(23) = (     0         -1          0      )
                  (     0          0          1      )
                  (    -1          0          0      )

 cart.    s(23) = (  0.0000000  0.0000000 -1.0000000 )
                  ( -1.0000000  0.0000000  0.0000000 )
                  (  0.0000000  1.0000000  0.0000000 )


      isym = 24     120 deg rotation - cart. axis [-1,-1,1]      

 cryst.   s(24) = (     0          1          0      )
                  (     0          0         -1      )
                  (    -1          0          0      )

 cart.    s(24) = (  0.0000000  0.0000000 -1.0000000 )
                  (  1.0000000  0.0000000  0.0000000 )
                  (  0.0000000 -1.0000000  0.0000000 )


      isym = 25     inversion                                    

 cryst.   s(25) = (    -1          0          0      )
                  (     0         -1          0      )
                  (     0          0         -1      )

 cart.    s(25) = ( -1.0000000  0.0000000  0.0000000 )
                  (  0.0000000 -1.0000000  0.0000000 )
                  (  0.0000000  0.0000000 -1.0000000 )


      isym = 26     inv. 180 deg rotation - cart. axis [0,0,1]   

 cryst.   s(26) = (     1          0          0      )
                  (     0          1          0      )
                  (     0          0         -1      )

 cart.    s(26) = (  1.0000000  0.0000000  0.0000000 )
                  (  0.0000000  1.0000000  0.0000000 )
                  (  0.0000000  0.0000000 -1.0000000 )


      isym = 27     inv. 180 deg rotation - cart. axis [0,1,0]   

 cryst.   s(27) = (     1          0          0      )
                  (     0         -1          0      )
                  (     0          0          1      )

 cart.    s(27) = (  1.0000000  0.0000000  0.0000000 )
                  (  0.0000000 -1.0000000  0.0000000 )
                  (  0.0000000  0.0000000  1.0000000 )


      isym = 28     inv. 180 deg rotation - cart. axis [1,0,0]   

 cryst.   s(28) = (    -1          0          0      )
                  (     0          1          0      )
                  (     0          0          1      )

 cart.    s(28) = ( -1.0000000  0.0000000  0.0000000 )
                  (  0.0000000  1.0000000  0.0000000 )
                  (  0.0000000  0.0000000  1.0000000 )


      isym = 29     inv. 180 deg rotation - cart. axis [1,1,0]   

 cryst.   s(29) = (     0         -1          0      )
                  (    -1          0          0      )
                  (     0          0          1      )

 cart.    s(29) = (  0.0000000 -1.0000000  0.0000000 )
                  ( -1.0000000  0.0000000  0.0000000 )
                  (  0.0000000  0.0000000  1.0000000 )


      isym = 30     inv. 180 deg rotation - cart. axis [1,-1,0]  

 cryst.   s(30) = (     0          1          0      )
                  (     1          0          0      )
                  (     0          0          1      )

 cart.    s(30) = (  0.0000000  1.0000000  0.0000000 )
                  (  1.0000000  0.0000000  0.0000000 )
                  (  0.0000000  0.0000000  1.0000000 )


      isym = 31     inv.  90 deg rotation - cart. axis [0,0,-1]  

 cryst.   s(31) = (     0          1          0      )
                  (    -1          0          0      )
                  (     0          0         -1      )

 cart.    s(31) = (  0.0000000 -1.0000000  0.0000000 )
                  (  1.0000000  0.0000000  0.0000000 )
                  (  0.0000000  0.0000000 -1.0000000 )


      isym = 32     inv.  90 deg rotation - cart. axis [0,0,1]   

 cryst.   s(32) = (     0         -1          0      )
                  (     1          0          0      )
                  (     0          0         -1      )

 cart.    s(32) = (  0.0000000  1.0000000  0.0000000 )
                  ( -1.0000000  0.0000000  0.0000000 )
                  (  0.0000000  0.0000000 -1.0000000 )


      isym = 33     inv. 180 deg rotation - cart. axis [1,0,1]   

 cryst.   s(33) = (     0          0         -1      )
                  (     0          1          0      )
                  (    -1          0          0      )

 cart.    s(33) = (  0.0000000  0.0000000 -1.0000000 )
                  (  0.0000000  1.0000000  0.0000000 )
                  ( -1.0000000  0.0000000  0.0000000 )


      isym = 34     inv. 180 deg rotation - cart. axis [-1,0,1]  

 cryst.   s(34) = (     0          0          1      )
                  (     0          1          0      )
                  (     1          0          0      )

 cart.    s(34) = (  0.0000000  0.0000000  1.0000000 )
                  (  0.0000000  1.0000000  0.0000000 )
                  (  1.0000000  0.0000000  0.0000000 )


      isym = 35     inv.  90 deg rotation - cart. axis [0,1,0]   

 cryst.   s(35) = (     0          0          1      )
                  (     0         -1          0      )
                  (    -1          0          0      )

 cart.    s(35) = (  0.0000000  0.0000000 -1.0000000 )
                  (  0.0000000 -1.0000000  0.0000000 )
                  (  1.0000000  0.0000000  0.0000000 )


      isym = 36     inv.  90 deg rotation - cart. axis [0,-1,0]  

 cryst.   s(36) = (     0          0         -1      )
                  (     0         -1          0      )
                  (     1          0          0      )

 cart.    s(36) = (  0.0000000  0.0000000  1.0000000 )
                  (  0.0000000 -1.0000000  0.0000000 )
                  ( -1.0000000  0.0000000  0.0000000 )


      isym = 37     inv. 180 deg rotation - cart. axis [0,1,1]   

 cryst.   s(37) = (     1          0          0      )
                  (     0          0         -1      )
                  (     0         -1          0      )

 cart.    s(37) = (  1.0000000  0.0000000  0.0000000 )
                  (  0.0000000  0.0000000 -1.0000000 )
                  (  0.0000000 -1.0000000  0.0000000 )


      isym = 38     inv. 180 deg rotation - cart. axis [0,1,-1]  

 cryst.   s(38) = (     1          0          0      )
                  (     0          0          1      )
                  (     0          1          0      )

 cart.    s(38) = (  1.0000000  0.0000000  0.0000000 )
                  (  0.0000000  0.0000000  1.0000000 )
                  (  0.0000000  1.0000000  0.0000000 )


      isym = 39     inv.  90 deg rotation - cart. axis [-1,0,0]  

 cryst.   s(39) = (    -1          0          0      )
                  (     0          0          1      )
                  (     0         -1          0      )

 cart.    s(39) = ( -1.0000000  0.0000000  0.0000000 )
                  (  0.0000000  0.0000000 -1.0000000 )
                  (  0.0000000  1.0000000  0.0000000 )


      isym = 40     inv.  90 deg rotation - cart. axis [1,0,0]   

 cryst.   s(40) = (    -1          0          0      )
                  (     0          0         -1      )
                  (     0          1          0      )

 cart.    s(40) = ( -1.0000000  0.0000000  0.0000000 )
                  (  0.0000000  0.0000000  1.0000000 )
                  (  0.0000000 -1.0000000  0.0000000 )


      isym = 41     inv. 120 deg rotation - cart. axis [-1,-1,-1]

 cryst.   s(41) = (     0          0         -1      )
                  (    -1          0          0      )
                  (     0         -1          0      )

 cart.    s(41) = (  0.0000000 -1.0000000  0.0000000 )
                  (  0.0000000  0.0000000 -1.0000000 )
                  ( -1.0000000  0.0000000  0.0000000 )


      isym = 42     inv. 120 deg rotation - cart. axis [-1,1,1]  

 cryst.   s(42) = (     0          0          1      )
                  (     1          0          0      )
                  (     0         -1          0      )

 cart.    s(42) = (  0.0000000  1.0000000  0.0000000 )
                  (  0.0000000  0.0000000 -1.0000000 )
                  (  1.0000000  0.0000000  0.0000000 )


      isym = 43     inv. 120 deg rotation - cart. axis [1,1,-1]  

 cryst.   s(43) = (     0          0          1      )
                  (    -1          0          0      )
                  (     0          1          0      )

 cart.    s(43) = (  0.0000000 -1.0000000  0.0000000 )
                  (  0.0000000  0.0000000  1.0000000 )
                  (  1.0000000  0.0000000  0.0000000 )


      isym = 44     inv. 120 deg rotation - cart. axis [1,-1,1]  

 cryst.   s(44) = (     0          0         -1      )
                  (     1          0          0      )
                  (     0          1          0      )

 cart.    s(44) = (  0.0000000  1.0000000  0.0000000 )
                  (  0.0000000  0.0000000  1.0000000 )
                  ( -1.0000000  0.0000000  0.0000000 )


      isym = 45     inv. 120 deg rotation - cart. axis [1,1,1]   

 cryst.   s(45) = (     0         -1          0      )
                  (     0          0         -1      )
                  (    -1          0          0      )

 cart.    s(45) = (  0.0000000  0.0000000 -1.0000000 )
                  ( -1.0000000  0.0000000  0.0000000 )
                  (  0.0000000 -1.0000000  0.0000000 )


      isym = 46     inv. 120 deg rotation - cart. axis [-1,1,-1] 

 cryst.   s(46) = (     0          1          0      )
                  (     0          0          1      )
                  (    -1          0          0      )

 cart.    s(46) = (  0.0000000  0.0000000 -1.0000000 )
                  (  1.0000000  0.0000000  0.0000000 )
                  (  0.0000000  1.0000000  0.0000000 )


      isym = 47     inv. 120 deg rotation - cart. axis [1,-1,-1] 

 cryst.   s(47) = (     0          1          0      )
                  (     0          0         -1      )
                  (     1          0          0      )

 cart.    s(47) = (  0.0000000  0.0000000  1.0000000 )
                  (  1.0000000  0.0000000  0.0000000 )
                  (  0.0000000 -1.0000000  0.0000000 )


      isym = 48     inv. 120 deg rotation - cart. axis [-1,-1,1] 

 cryst.   s(48) = (     0         -1          0      )
                  (     0          0          1      )
                  (     1          0          0      )

 cart.    s(48) = (  0.0000000  0.0000000  1.0000000 )
                  ( -1.0000000  0.0000000  0.0000000 )
                  (  0.0000000  1.0000000  0.0000000 )


   Cartesian axes

     site n.     atom                  positions (alat units)
         1        V      tau(   1) = (   0.0000000   0.0000000   0.0000000  )
         2        Fe     tau(   2) = (   0.5000000   0.5000000   0.5000000  )
         3        Fe     tau(   3) = (   0.5000000   0.0000000   0.5000000  )
         4        Fe     tau(   4) = (   0.5000000   0.5000000   0.0000000  )
         5        Fe     tau(   5) = (   0.0000000   0.5000000   0.5000000  )
         6        Fe     tau(   6) = (   0.5000000   0.0000000   0.0000000  )
         7        Fe     tau(   7) = (   0.0000000   0.0000000   0.5000000  )
         8        Fe     tau(   8) = (   0.0000000   0.5000000   0.0000000  )
         9        Fe     tau(   9) = (   0.2500690   0.2500690   0.2500690  )
        10        Fe     tau(  10) = (   0.2500690   0.7499310   0.2500690  )
        11        Fe     tau(  11) = (   0.2500690   0.2500690   0.7499310  )
        12        Fe     tau(  12) = (   0.7499310   0.2500690   0.2500690  )
        13        Fe     tau(  13) = (   0.7499310   0.7499310   0.2500690  )
        14        Fe     tau(  14) = (   0.2500690   0.7499310   0.7499310  )
        15        Fe     tau(  15) = (   0.7499310   0.2500690   0.7499310  )
        16        Fe     tau(  16) = (   0.7499310   0.7499310   0.7499310  )

   Crystallographic axes

     site n.     atom                  positions (cryst. coord.)
         1        V      tau(   1) = (  0.0000000  0.0000000  0.0000000  )
         2        Fe     tau(   2) = (  0.5000000  0.5000000  0.5000000  )
         3        Fe     tau(   3) = (  0.5000000  0.0000000  0.5000000  )
         4        Fe     tau(   4) = (  0.5000000  0.5000000  0.0000000  )
         5        Fe     tau(   5) = (  0.0000000  0.5000000  0.5000000  )
         6        Fe     tau(   6) = (  0.5000000  0.0000000  0.0000000  )
         7        Fe     tau(   7) = (  0.0000000  0.0000000  0.5000000  )
         8        Fe     tau(   8) = (  0.0000000  0.5000000  0.0000000  )
         9        Fe     tau(   9) = (  0.2500690  0.2500690  0.2500690  )
        10        Fe     tau(  10) = (  0.2500690  0.7499310  0.2500690  )
        11        Fe     tau(  11) = (  0.2500690  0.2500690  0.7499310  )
        12        Fe     tau(  12) = (  0.7499310  0.2500690  0.2500690  )
        13        Fe     tau(  13) = (  0.7499310  0.7499310  0.2500690  )
        14        Fe     tau(  14) = (  0.2500690  0.7499310  0.7499310  )
        15        Fe     tau(  15) = (  0.7499310  0.2500690  0.7499310  )
        16        Fe     tau(  16) = (  0.7499310  0.7499310  0.7499310  )

     number of k points=    10  Marzari-Vanderbilt smearing, width (Ry)=  0.0400
                       cart. coord. in units 2pi/alat
        k(    1) = (   0.0000000   0.0000000   0.0000000), wk =   0.0156250
        k(    2) = (   0.0000000   0.0000000   0.2500000), wk =   0.0937500
        k(    3) = (   0.0000000   0.0000000  -0.5000000), wk =   0.0468750
        k(    4) = (   0.0000000   0.2500000   0.2500000), wk =   0.1875000
        k(    5) = (   0.0000000   0.2500000  -0.5000000), wk =   0.1875000
        k(    6) = (   0.0000000  -0.5000000  -0.5000000), wk =   0.0468750
        k(    7) = (   0.2500000   0.2500000   0.2500000), wk =   0.1250000
        k(    8) = (   0.2500000   0.2500000  -0.5000000), wk =   0.1875000
        k(    9) = (   0.2500000  -0.5000000  -0.5000000), wk =   0.0937500
        k(   10) = (  -0.5000000  -0.5000000  -0.5000000), wk =   0.0156250

                       cryst. coord.
        k(    1) = (   0.0000000   0.0000000   0.0000000), wk =   0.0156250
        k(    2) = (   0.0000000   0.0000000   0.2500000), wk =   0.0937500
        k(    3) = (   0.0000000   0.0000000  -0.5000000), wk =   0.0468750
        k(    4) = (   0.0000000   0.2500000   0.2500000), wk =   0.1875000
        k(    5) = (   0.0000000   0.2500000  -0.5000000), wk =   0.1875000
        k(    6) = (   0.0000000  -0.5000000  -0.5000000), wk =   0.0468750
        k(    7) = (   0.2500000   0.2500000   0.2500000), wk =   0.1250000
        k(    8) = (   0.2500000   0.2500000  -0.5000000), wk =   0.1875000
        k(    9) = (   0.2500000  -0.5000000  -0.5000000), wk =   0.0937500
        k(   10) = (  -0.5000000  -0.5000000  -0.5000000), wk =   0.0156250

     Dense  grid:   221575 G-vectors     FFT dimensions: (  75,  75,  75)

     Smooth grid:    78229 G-vectors     FFT dimensions: (  54,  54,  54)

     Dynamical RAM for                 wfc:      11.36 MB

     Dynamical RAM for     wfc (w. buffer):     238.46 MB

     Dynamical RAM for           str. fact:       3.38 MB

     Dynamical RAM for           local pot:       0.00 MB

     Dynamical RAM for          nlocal pot:      21.52 MB

     Dynamical RAM for                qrad:       3.52 MB

     Dynamical RAM for          rho,v,vnew:      19.93 MB

     Dynamical RAM for               rhoin:       6.64 MB

     Dynamical RAM for            rho*nmix:      54.10 MB

     Dynamical RAM for           G-vectors:       6.64 MB

     Dynamical RAM for          h,s,v(r/c):       1.06 MB

     Dynamical RAM for          <psi|beta>:       0.67 MB

     Dynamical RAM for      wfcinit/wfcrot:      23.24 MB

     Dynamical RAM for           addusdens:     341.48 MB

     Estimated static dynamical RAM per process >     314.94 MB

     Estimated max dynamical RAM per process >     710.51 MB

     Estimated total dynamical RAM >       1.39 GB

     Check: negative core charge=   -0.000003
     Generating pointlists ...
     new r_m :   0.1787 (alat units)  1.9234 (a.u.) for type    1
     new r_m :   0.1786 (alat units)  1.9223 (a.u.) for type    2

     Initial potential from superposition of free atoms

     starting charge     252.9931, renormalised to     253.0000
     Starting wfcs are  160 randomized atomic wfcs
     Checking if some PAW data can be deallocated... 
       PAW data deallocated on    1 nodes for type:  1

     total cpu time spent up to now is       14.0 secs

     Self-consistent Calculation

     iteration #  1     ecut=    60.00 Ry     beta= 0.20
     CG style diagonalization

---- Real-time Memory Report at c_bands before calling an iterative solver
           435 MiB given to the printing process from OS
             0 MiB allocation reported by mallinfo(arena+hblkhd)
         16222 MiB available memory on the node where the printing process lives
------------------
     ethr =  1.00E-02,  avg # of iterations =  2.6

     total cpu time spent up to now is       91.1 secs

     total energy              =   -5107.11216584 Ry
     estimated scf accuracy    <      18.58353035 Ry

     total magnetization       =    50.95 Bohr mag/cell
     absolute magnetization    =    55.32 Bohr mag/cell

     iteration #  2     ecut=    60.00 Ry     beta= 0.20
     CG style diagonalization

---- Real-time Memory Report at c_bands before calling an iterative solver
           725 MiB given to the printing process from OS
             0 MiB allocation reported by mallinfo(arena+hblkhd)
         15798 MiB available memory on the node where the printing process lives
------------------
     ethr =  7.35E-03,  avg # of iterations =  3.0

     negative rho (up, down):  0.000E+00 5.331E-04

     total cpu time spent up to now is      155.9 secs

     total energy              =   -5111.41013845 Ry
     estimated scf accuracy    <      10.32825662 Ry

     total magnetization       =    48.55 Bohr mag/cell
     absolute magnetization    =    53.63 Bohr mag/cell

     iteration #  3     ecut=    60.00 Ry     beta= 0.20
     CG style diagonalization

---- Real-time Memory Report at c_bands before calling an iterative solver
           728 MiB given to the printing process from OS
             0 MiB allocation reported by mallinfo(arena+hblkhd)
         15817 MiB available memory on the node where the printing process lives
------------------
     ethr =  4.08E-03,  avg # of iterations =  3.0

     negative rho (up, down):  0.000E+00 4.517E-03

     total cpu time spent up to now is      221.7 secs

     total energy              =   -5114.73771051 Ry
     estimated scf accuracy    <       5.60951569 Ry

     total magnetization       =    44.87 Bohr mag/cell
     absolute magnetization    =    50.63 Bohr mag/cell

     iteration #  4     ecut=    60.00 Ry     beta= 0.20
     CG style diagonalization

---- Real-time Memory Report at c_bands before calling an iterative solver
           731 MiB given to the printing process from OS
             0 MiB allocation reported by mallinfo(arena+hblkhd)
         15940 MiB available memory on the node where the printing process lives
------------------
     ethr =  2.22E-03,  avg # of iterations =  3.1

     negative rho (up, down):  0.000E+00 3.467E-03

     total cpu time spent up to now is      290.1 secs

     total energy              =   -5115.34941452 Ry
     estimated scf accuracy    <       0.41338144 Ry

     total magnetization       =    36.58 Bohr mag/cell
     absolute magnetization    =    44.21 Bohr mag/cell

     iteration #  5     ecut=    60.00 Ry     beta= 0.20
     CG style diagonalization

---- Real-time Memory Report at c_bands before calling an iterative solver
           733 MiB given to the printing process from OS
             0 MiB allocation reported by mallinfo(arena+hblkhd)
         15832 MiB available memory on the node where the printing process lives
------------------
     ethr =  1.63E-04,  avg # of iterations =  3.6

     negative rho (up, down):  0.000E+00 3.136E-03

     total cpu time spent up to now is      371.5 secs

     total energy              =   -5115.47892960 Ry
     estimated scf accuracy    <       0.12747619 Ry

     total magnetization       =    34.00 Bohr mag/cell
     absolute magnetization    =    41.01 Bohr mag/cell

     iteration #  6     ecut=    60.00 Ry     beta= 0.20
     CG style diagonalization

---- Real-time Memory Report at c_bands before calling an iterative solver
           736 MiB given to the printing process from OS
             0 MiB allocation reported by mallinfo(arena+hblkhd)
         15894 MiB available memory on the node where the printing process lives
------------------
     ethr =  5.04E-05,  avg # of iterations =  3.5

     negative rho (up, down):  2.367E-05 2.112E-03

     total cpu time spent up to now is      451.1 secs

     total energy              =   -5115.52005215 Ry
     estimated scf accuracy    <       0.06118043 Ry

     total magnetization       =    33.05 Bohr mag/cell
     absolute magnetization    =    39.15 Bohr mag/cell

     iteration #  7     ecut=    60.00 Ry     beta= 0.20
     CG style diagonalization

---- Real-time Memory Report at c_bands before calling an iterative solver
           738 MiB given to the printing process from OS
             0 MiB allocation reported by mallinfo(arena+hblkhd)
         15808 MiB available memory on the node where the printing process lives
------------------
     c_bands:  1 eigenvalues not converged
     ethr =  2.42E-05,  avg # of iterations =  3.4

     negative rho (up, down):  4.348E-05 2.159E-04

     total cpu time spent up to now is      527.7 secs

     total energy              =   -5115.53969142 Ry
     estimated scf accuracy    <       0.04279890 Ry

     total magnetization       =    31.95 Bohr mag/cell
     absolute magnetization    =    37.58 Bohr mag/cell

     iteration #  8     ecut=    60.00 Ry     beta= 0.20
     CG style diagonalization

---- Real-time Memory Report at c_bands before calling an iterative solver
           741 MiB given to the printing process from OS
             0 MiB allocation reported by mallinfo(arena+hblkhd)
         15834 MiB available memory on the node where the printing process lives
------------------
     c_bands:  1 eigenvalues not converged
     ethr =  1.69E-05,  avg # of iterations =  3.4

     negative rho (up, down):  5.189E-05 0.000E+00

     total cpu time spent up to now is      595.1 secs

     total energy              =   -5115.55562323 Ry
     estimated scf accuracy    <       0.03802083 Ry

     total magnetization       =    31.15 Bohr mag/cell
     absolute magnetization    =    36.41 Bohr mag/cell

     iteration #  9     ecut=    60.00 Ry     beta= 0.20
     CG style diagonalization

---- Real-time Memory Report at c_bands before calling an iterative solver
           743 MiB given to the printing process from OS
             0 MiB allocation reported by mallinfo(arena+hblkhd)
         15905 MiB available memory on the node where the printing process lives
------------------
     c_bands:  1 eigenvalues not converged
     ethr =  1.50E-05,  avg # of iterations =  3.0

     negative rho (up, down):  3.498E-05 0.000E+00

     total cpu time spent up to now is      646.6 secs

     total energy              =   -5115.55788281 Ry
     estimated scf accuracy    <       0.01701922 Ry

     total magnetization       =    30.78 Bohr mag/cell
     absolute magnetization    =    35.83 Bohr mag/cell

     iteration # 10     ecut=    60.00 Ry     beta= 0.20
     CG style diagonalization

---- Real-time Memory Report at c_bands before calling an iterative solver
           746 MiB given to the printing process from OS
             0 MiB allocation reported by mallinfo(arena+hblkhd)
         15869 MiB available memory on the node where the printing process lives
------------------
     c_bands:  1 eigenvalues not converged
     ethr =  6.73E-06,  avg # of iterations =  3.1

     negative rho (up, down):  2.035E-05 0.000E+00

     total cpu time spent up to now is      699.0 secs

     total energy              =   -5115.55917880 Ry
     estimated scf accuracy    <       0.00516043 Ry

     total magnetization       =    31.07 Bohr mag/cell
     absolute magnetization    =    35.93 Bohr mag/cell

     iteration # 11     ecut=    60.00 Ry     beta= 0.20
     CG style diagonalization

---- Real-time Memory Report at c_bands before calling an iterative solver
           746 MiB given to the printing process from OS
             0 MiB allocation reported by mallinfo(arena+hblkhd)
         15874 MiB available memory on the node where the printing process lives
------------------
     c_bands:  2 eigenvalues not converged
     c_bands:  1 eigenvalues not converged
     c_bands:  1 eigenvalues not converged
     c_bands:  1 eigenvalues not converged
     c_bands:  1 eigenvalues not converged
     ethr =  2.04E-06,  avg # of iterations =  3.6

     negative rho (up, down):  1.341E-05 0.000E+00

     total cpu time spent up to now is      761.1 secs

     total energy              =   -5115.56043688 Ry
     estimated scf accuracy    <       0.00196300 Ry

     total magnetization       =    31.01 Bohr mag/cell
     absolute magnetization    =    35.64 Bohr mag/cell

     iteration # 12     ecut=    60.00 Ry     beta= 0.20
     CG style diagonalization

---- Real-time Memory Report at c_bands before calling an iterative solver
           746 MiB given to the printing process from OS
             0 MiB allocation reported by mallinfo(arena+hblkhd)
         15920 MiB available memory on the node where the printing process lives
------------------
     c_bands:  2 eigenvalues not converged
     c_bands:  1 eigenvalues not converged
     c_bands:  1 eigenvalues not converged
     ethr =  7.76E-07,  avg # of iterations =  3.4

     negative rho (up, down):  7.012E-06 0.000E+00

     total cpu time spent up to now is      818.7 secs

     total energy              =   -5115.56073998 Ry
     estimated scf accuracy    <       0.00176421 Ry

     total magnetization       =    30.92 Bohr mag/cell
     absolute magnetization    =    35.44 Bohr mag/cell

     iteration # 13     ecut=    60.00 Ry     beta= 0.20
     CG style diagonalization

---- Real-time Memory Report at c_bands before calling an iterative solver
           746 MiB given to the printing process from OS
             0 MiB allocation reported by mallinfo(arena+hblkhd)
         15922 MiB available memory on the node where the printing process lives
------------------
     c_bands:  1 eigenvalues not converged
     ethr =  6.97E-07,  avg # of iterations =  3.2

     negative rho (up, down):  6.373E-06 0.000E+00

     total cpu time spent up to now is      873.4 secs

     total energy              =   -5115.56094691 Ry
     estimated scf accuracy    <       0.00015823 Ry

     total magnetization       =    30.90 Bohr mag/cell
     absolute magnetization    =    35.31 Bohr mag/cell

     iteration # 14     ecut=    60.00 Ry     beta= 0.20
     CG style diagonalization

---- Real-time Memory Report at c_bands before calling an iterative solver
           746 MiB given to the printing process from OS
             0 MiB allocation reported by mallinfo(arena+hblkhd)
         15857 MiB available memory on the node where the printing process lives
------------------
     ethr =  6.25E-08,  avg # of iterations =  4.0

     negative rho (up, down):  5.971E-06 0.000E+00

     total cpu time spent up to now is      942.8 secs

     total energy              =   -5115.56104514 Ry
     estimated scf accuracy    <       0.00003426 Ry

     total magnetization       =    30.87 Bohr mag/cell
     absolute magnetization    =    35.23 Bohr mag/cell

     iteration # 15     ecut=    60.00 Ry     beta= 0.20
     CG style diagonalization

---- Real-time Memory Report at c_bands before calling an iterative solver
           746 MiB given to the printing process from OS
             0 MiB allocation reported by mallinfo(arena+hblkhd)
         15939 MiB available memory on the node where the printing process lives
------------------
     ethr =  1.35E-08,  avg # of iterations =  4.3

     negative rho (up, down):  5.960E-06 0.000E+00

     total cpu time spent up to now is     1017.5 secs

     total energy              =   -5115.56108117 Ry
     estimated scf accuracy    <       0.00001352 Ry

     total magnetization       =    30.83 Bohr mag/cell
     absolute magnetization    =    35.13 Bohr mag/cell

     iteration # 16     ecut=    60.00 Ry     beta= 0.20
     CG style diagonalization

---- Real-time Memory Report at c_bands before calling an iterative solver
           746 MiB given to the printing process from OS
             0 MiB allocation reported by mallinfo(arena+hblkhd)
         16026 MiB available memory on the node where the printing process lives
------------------
     ethr =  5.34E-09,  avg # of iterations =  4.3

     negative rho (up, down):  7.162E-06 0.000E+00

     total cpu time spent up to now is     1093.6 secs

     total energy              =   -5115.56109826 Ry
     estimated scf accuracy    <       0.00002047 Ry

     total magnetization       =    30.80 Bohr mag/cell
     absolute magnetization    =    35.07 Bohr mag/cell

     iteration # 17     ecut=    60.00 Ry     beta= 0.20
     CG style diagonalization

---- Real-time Memory Report at c_bands before calling an iterative solver
           746 MiB given to the printing process from OS
             0 MiB allocation reported by mallinfo(arena+hblkhd)
         16067 MiB available memory on the node where the printing process lives
------------------
     ethr =  5.34E-09,  avg # of iterations =  3.2

     negative rho (up, down):  7.914E-06 0.000E+00

     Magnetic moment per site  (integrated on atomic sphere of radius R)
     atom   1 (R=0.179)  charge= 10.9899  magn= -1.0711
     atom   2 (R=0.179)  charge= 14.4002  magn=  2.5184
     atom   3 (R=0.179)  charge= 14.3994  magn=  2.2383
     atom   4 (R=0.179)  charge= 14.3994  magn=  2.2383
     atom   5 (R=0.179)  charge= 14.3994  magn=  2.2383
     atom   6 (R=0.179)  charge= 14.4130  magn=  2.1556
     atom   7 (R=0.179)  charge= 14.4130  magn=  2.1556
     atom   8 (R=0.179)  charge= 14.4130  magn=  2.1556
     atom   9 (R=0.179)  charge= 14.4213  magn=  2.1371
     atom  10 (R=0.179)  charge= 14.4213  magn=  2.1371
     atom  11 (R=0.179)  charge= 14.4213  magn=  2.1371
     atom  12 (R=0.179)  charge= 14.4213  magn=  2.1371
     atom  13 (R=0.179)  charge= 14.4213  magn=  2.1371
     atom  14 (R=0.179)  charge= 14.4213  magn=  2.1371
     atom  15 (R=0.179)  charge= 14.4213  magn=  2.1371
     atom  16 (R=0.179)  charge= 14.4213  magn=  2.1371

     total cpu time spent up to now is     1147.8 secs

     End of self-consistent calculation

 ------ SPIN UP ------------


          k = 0.0000 0.0000 0.0000 (  9795 PWs)   bands (ev):

   -69.8981 -69.8403 -69.8144 -69.8144 -69.7863 -69.7741 -69.7741 -69.7572
   -69.7572 -69.7572 -69.7522 -69.7522 -69.7522 -69.7471 -69.7175 -45.4494
   -36.1804 -36.1804 -36.1804 -36.1721 -36.1721 -36.1721 -36.0793 -36.0793
   -36.0793 -35.9980 -35.9980 -35.9980 -35.9767 -35.9767 -35.9767 -35.9724
   -35.9620 -35.9620 -35.9620 -35.9611 -35.9611 -35.9553 -35.9553 -35.9553
   -35.9319 -35.9319 -35.9319 -35.9029 -35.9029 -35.9029 -35.9028 -35.8948
   -35.8948 -35.8948 -35.8894 -35.8894 -35.8319 -35.8319 -35.8319 -35.7763
   -35.7763 -35.7763 -35.7725 -35.7725 -35.7725 -19.4111 -19.4111 -19.4111
     9.4818  13.0404  13.0404  13.0404  13.0527  13.0527  13.0641  13.1617
    13.1617  13.2655  13.2655  13.2760  13.2760  13.2760  13.5364  14.5881
    14.5881  14.5881  14.6087  14.6087  14.6087  14.7634  14.7634  14.7634
    14.8525  14.8525  14.8525  14.9758  14.9758  14.9758  14.9774  15.1446
    15.1446  15.6960  15.6960  15.6960  16.0793  16.0793  16.0793  16.1071
    16.1071  16.1071  16.1183  16.1183  16.1183  16.3877  16.3877  16.3877
    16.8040  16.8654  16.8654  16.8922  16.8922  16.9008  16.9008  16.9008
    16.9327  16.9713  16.9713  17.0540  17.0540  17.0583  17.0844  17.0844
    17.0844  17.1206  17.1206  17.3048  17.3048  17.3048  17.7486  17.7486
    18.1323  18.1323  18.1323  18.1671  18.1671  18.1671  18.2784  18.2900
    18.2900  18.2900  18.3449  18.3449  18.3449  18.5214  18.5214  18.5214

     occupation numbers 
     1.0000   1.0000   1.0000   1.0000   1.0000   1.0000   1.0000   1.0000
     1.0000   1.0000   1.0000   1.0000   1.0000   1.0000   1.0000   1.0000
     1.0000   1.0000   1.0000   1.0000   1.0000   1.0000   1.0000   1.0000
     1.0000   1.0000   1.0000   1.0000   1.0000   1.0000   1.0000   1.0000
     1.0000   1.0000   1.0000   1.0000   1.0000   1.0000   1.0000   1.0000
     1.0000   1.0000   1.0000   1.0000   1.0000   1.0000   1.0000   1.0000
     1.0000   1.0000   1.0000   1.0000   1.0000   1.0000   1.0000   1.0000
     1.0000   1.0000   1.0000   1.0000   1.0000   1.0000   1.0000   1.0000
     1.0000   1.0000   1.0000   1.0000   1.0000   1.0000   1.0000   1.0000
     1.0000   1.0000   1.0000   1.0000   1.0000   1.0000   1.0000   1.0000
     1.0000   1.0000   1.0000   1.0000   1.0000   1.0000   1.0000   1.0000
     1.0000   1.0000   1.0000   1.0000   1.0000   1.0000   1.0000   1.0000
     1.0000   1.0000   1.0000   1.0000   1.0003   1.0003   1.0003   1.0004
     1.0004   1.0004   1.0004   1.0004   1.0004   1.0038   1.0038   1.0038
     1.0405   1.0507   1.0507   1.0553   1.0553   1.0568   1.0568   1.0568
     1.0623   1.0686   1.0686   1.0795   1.0795   1.0799   1.0819   1.0819
     1.0819   1.0833   1.0833   1.0501   1.0501   1.0501   0.6001   0.6001
     0.1626   0.1626   0.1626   0.1383   0.1383   0.1383   0.0783   0.0734
     0.0734   0.0734   0.0537   0.0537   0.0537   0.0172   0.0172   0.0172

          k = 0.0000 0.0000 0.2500 (  9807 PWs)   bands (ev):

   -69.8975 -69.8373 -69.8186 -69.8143 -69.7882 -69.7790 -69.7741 -69.7564
   -69.7564 -69.7529 -69.7529 -69.7515 -69.7480 -69.7462 -69.7213 -45.4494
   -36.1719 -36.1719 -36.1676 -36.1553 -36.1553 -36.1533 -36.0827 -36.0736
   -36.0736 -36.0463 -36.0463 -36.0344 -36.0264 -36.0126 -36.0126 -36.0018
   -35.9860 -35.9740 -35.9740 -35.9521 -35.9521 -35.9468 -35.9272 -35.9076
   -35.9073 -35.9073 -35.9042 -35.9020 -35.8944 -35.8939 -35.8902 -35.8744
   -35.8711 -35.8711 -35.8615 -35.8615 -35.8413 -35.8375 -35.8375 -35.7932
   -35.7871 -35.7871 -35.7842 -35.7842 -35.7834 -19.4115 -19.4111 -19.4111
     9.8030  12.0387  13.1311  13.1311  13.1408  13.1591  13.2610  13.2629
    13.2878  13.3109  13.3571  13.3571  13.3701  13.5368  13.8089  14.3106
    14.4588  14.4846  14.5339  14.5339  14.6139  14.6139  14.7242  14.7818
    14.7818  14.8398  14.9464  14.9464  14.9576  15.1105  15.2330  15.2330
    15.6570  15.6570  15.6633  15.6969  15.7312  15.7312  15.7549  15.9213
    15.9213  15.9816  16.3135  16.3389  16.3725  16.3746  16.3746  16.4096
    16.4096  16.4925  16.5705  16.6864  16.6864  16.7612  16.8775  16.9367
    16.9367  16.9436  16.9493  16.9992  17.0057  17.0555  17.0810  17.0810
    17.0897  17.1116  17.1152  17.2799  17.2985  17.3081  17.4975  17.4975
    17.5221  17.7812  18.0048  18.0048  18.0138  18.0662  18.2108  18.2272
    18.2272  18.3935  18.4567  18.4978  18.4978  19.1615  19.4855  19.6100

     occupation numbers 
     1.0000   1.0000   1.0000   1.0000   1.0000   1.0000   1.0000   1.0000
     1.0000   1.0000   1.0000   1.0000   1.0000   1.0000   1.0000   1.0000
     1.0000   1.0000   1.0000   1.0000   1.0000   1.0000   1.0000   1.0000
     1.0000   1.0000   1.0000   1.0000   1.0000   1.0000   1.0000   1.0000
     1.0000   1.0000   1.0000   1.0000   1.0000   1.0000   1.0000   1.0000
     1.0000   1.0000   1.0000   1.0000   1.0000   1.0000   1.0000   1.0000
     1.0000   1.0000   1.0000   1.0000   1.0000   1.0000   1.0000   1.0000
     1.0000   1.0000   1.0000   1.0000   1.0000   1.0000   1.0000   1.0000
     1.0000   1.0000   1.0000   1.0000   1.0000   1.0000   1.0000   1.0000
     1.0000   1.0000   1.0000   1.0000   1.0000   1.0000   1.0000   1.0000
     1.0000   1.0000   1.0000   1.0000   1.0000   1.0000   1.0000   1.0000
     1.0000   1.0000   1.0000   1.0000   1.0000   1.0000   1.0000   1.0000
     1.0000   1.0000   1.0000   1.0000   1.0000   1.0000   1.0000   1.0001
     1.0001   1.0001   1.0022   1.0027   1.0034   1.0035   1.0035   1.0045
     1.0045   1.0079   1.0128   1.0239   1.0239   1.0339   1.0528   1.0630
     1.0630   1.0641   1.0651   1.0728   1.0737   1.0796   1.0817   1.0817
     1.0822   1.0831   1.0832   1.0595   1.0527   1.0488   0.9141   0.9141
     0.8888   0.5551   0.2763   0.2763   0.2671   0.2167   0.1116   0.1027
     0.1027   0.0400   0.0267   0.0203   0.0203   0.0001   0.0000   0.0000

          k = 0.0000 0.0000-0.5000 (  9794 PWs)   bands (ev):

   -69.8968 -69.8296 -69.8276 -69.8143 -69.7900 -69.7807 -69.7743 -69.7548
   -69.7548 -69.7547 -69.7547 -69.7496 -69.7496 -69.7325 -69.7305 -45.4494
   -36.1614 -36.1614 -36.1483 -36.1105 -36.1095 -36.1095 -36.1094 -36.1094
   -36.0897 -36.0895 -36.0654 -36.0618 -36.0618 -36.0434 -36.0434 -36.0073
   -35.9891 -35.9865 -35.9865 -35.9574 -35.9574 -35.9259 -35.9257 -35.8995
   -35.8995 -35.8954 -35.8922 -35.8922 -35.8773 -35.8773 -35.8695 -35.8535
   -35.8535 -35.8425 -35.8309 -35.8293 -35.8293 -35.8292 -35.8191 -35.8191
   -35.8133 -35.8133 -35.8120 -35.8120 -35.8086 -19.4119 -19.4110 -19.4110
    10.6622  10.7756  13.2796  13.2951  13.3179  13.3179  13.3281  13.3281
    13.3598  13.4948  13.5927  13.6543  13.6690  13.7699  13.7901  13.8326
    13.8792  13.9119  14.5014  14.5014  14.5942  14.5942  15.0789  15.0951
    15.0951  15.1068  15.1116  15.2106  15.2106  15.3342  15.3639  15.3703
    15.3703  15.3718  15.3788  15.3788  15.3883  15.6708  15.6708  15.7834
    15.7834  15.8202  15.9652  15.9652  15.9849  16.0827  16.0827  16.2313
    16.3089  16.3942  16.6534  16.6534  16.6573  16.6617  16.6804  16.8351
    16.8512  16.8512  17.0075  17.0344  17.0563  17.0823  17.0848  17.1022
    17.1026  17.1181  17.1952  17.1952  17.4661  17.4661  17.6668  17.7549
    17.8003  17.8034  17.8034  17.8203  17.8401  17.8552  17.9534  18.3182
    18.3182  18.3636  18.4526  18.4758  18.4758  19.2205  19.5587  19.8838

     occupation numbers 
     1.0000   1.0000   1.0000   1.0000   1.0000   1.0000   1.0000   1.0000
     1.0000   1.0000   1.0000   1.0000   1.0000   1.0000   1.0000   1.0000
     1.0000   1.0000   1.0000   1.0000   1.0000   1.0000   1.0000   1.0000
     1.0000   1.0000   1.0000   1.0000   1.0000   1.0000   1.0000   1.0000
     1.0000   1.0000   1.0000   1.0000   1.0000   1.0000   1.0000   1.0000
     1.0000   1.0000   1.0000   1.0000   1.0000   1.0000   1.0000   1.0000
     1.0000   1.0000   1.0000   1.0000   1.0000   1.0000   1.0000   1.0000
     1.0000   1.0000   1.0000   1.0000   1.0000   1.0000   1.0000   1.0000
     1.0000   1.0000   1.0000   1.0000   1.0000   1.0000   1.0000   1.0000
     1.0000   1.0000   1.0000   1.0000   1.0000   1.0000   1.0000   1.0000
     1.0000   1.0000   1.0000   1.0000   1.0000   1.0000   1.0000   1.0000
     1.0000   1.0000   1.0000   1.0000   1.0000   1.0000   1.0000   1.0000
     1.0000   1.0000   1.0000   1.0000   1.0000   1.0000   1.0000   1.0000
     1.0000   1.0000   1.0001   1.0001   1.0001   1.0003   1.0003   1.0011
     1.0021   1.0040   1.0202   1.0202   1.0206   1.0211   1.0232   1.0456
     1.0483   1.0483   1.0739   1.0773   1.0797   1.0818   1.0819   1.0828
     1.0828   1.0832   1.0791   1.0791   0.9440   0.9440   0.7122   0.5914
     0.5288   0.5245   0.5245   0.5015   0.4748   0.4548   0.3328   0.0627
     0.0627   0.0481   0.0275   0.0235   0.0235   0.0000   0.0000   0.0000

          k = 0.0000 0.2500 0.2500 (  9769 PWs)   bands (ev):

   -69.8969 -69.8345 -69.8195 -69.8163 -69.7889 -69.7811 -69.7780 -69.7557
   -69.7521 -69.7521 -69.7520 -69.7490 -69.7486 -69.7448 -69.7244 -45.4494
   -36.1658 -36.1642 -36.1611 -36.1460 -36.1417 -36.1283 -36.0919 -36.0741
   -36.0732 -36.0699 -36.0625 -36.0600 -36.0553 -36.0232 -35.9951 -35.9846
   -35.9775 -35.9759 -35.9686 -35.9653 -35.9546 -35.9468 -35.9341 -35.9208
   -35.9140 -35.9114 -35.9077 -35.9069 -35.9006 -35.8890 -35.8647 -35.8636
   -35.8624 -35.8558 -35.8538 -35.8456 -35.8384 -35.8344 -35.8238 -35.8204
   -35.7983 -35.7953 -35.7921 -35.7840 -35.7751 -19.4114 -19.4114 -19.4110
    10.1141  12.1960  12.2761  12.9528  13.3523  13.3535  13.3597  13.3692
    13.3887  13.4308  13.4592  13.4893  13.6013  13.8366  13.8958  14.3308
    14.3401  14.3774  14.3868  14.6352  14.6702  14.7033  14.7062  14.7140
    14.7386  14.7661  14.8876  14.9174  15.0136  15.1446  15.1641  15.4315
    15.4431  15.4896  15.5126  15.5548  15.6054  15.6812  15.7094  15.7779
    16.0762  16.1440  16.1583  16.1788  16.2020  16.2170  16.2385  16.2897
    16.3804  16.4514  16.5268  16.5287  16.5536  16.6470  16.7992  16.8028
    16.8141  16.8799  16.9000  16.9434  16.9522  16.9816  17.0260  17.0364
    17.0867  17.1353  17.2375  17.2408  17.2507  17.3525  17.3780  17.4269
    17.4298  17.4746  17.5311  17.5565  17.7240  17.8011  18.1959  18.2097
    18.4464  18.4705  18.9450  18.9470  19.3188  19.7395  19.8616  20.1768

     occupation numbers 
     1.0000   1.0000   1.0000   1.0000   1.0000   1.0000   1.0000   1.0000
     1.0000   1.0000   1.0000   1.0000   1.0000   1.0000   1.0000   1.0000
     1.0000   1.0000   1.0000   1.0000   1.0000   1.0000   1.0000   1.0000
     1.0000   1.0000   1.0000   1.0000   1.0000   1.0000   1.0000   1.0000
     1.0000   1.0000   1.0000   1.0000   1.0000   1.0000   1.0000   1.0000
     1.0000   1.0000   1.0000   1.0000   1.0000   1.0000   1.0000   1.0000
     1.0000   1.0000   1.0000   1.0000   1.0000   1.0000   1.0000   1.0000
     1.0000   1.0000   1.0000   1.0000   1.0000   1.0000   1.0000   1.0000
     1.0000   1.0000   1.0000   1.0000   1.0000   1.0000   1.0000   1.0000
     1.0000   1.0000   1.0000   1.0000   1.0000   1.0000   1.0000   1.0000
     1.0000   1.0000   1.0000   1.0000   1.0000   1.0000   1.0000   1.0000
     1.0000   1.0000   1.0000   1.0000   1.0000   1.0000   1.0000   1.0000
     1.0000   1.0000   1.0000   1.0000   1.0000   1.0000   1.0000   1.0000
     1.0003   1.0005   1.0006   1.0007   1.0009   1.0010   1.0012   1.0018
     1.0036   1.0060   1.0098   1.0099   1.0115   1.0196   1.0397   1.0403
     1.0421   1.0532   1.0567   1.0641   1.0655   1.0702   1.0764   1.0776
     1.0820   1.0833   1.0716   1.0708   1.0683   1.0271   1.0119   0.9772
     0.9749   0.9361   0.8791   0.8507   0.6342   0.5277   0.1202   0.1123
     0.0286   0.0244   0.0005   0.0005   0.0000   0.0000   0.0000   0.0000

          k = 0.0000 0.2500-0.5000 (  9812 PWs)   bands (ev):

   -69.8965 -69.8280 -69.8262 -69.8168 -69.7902 -69.7826 -69.7798 -69.7539
   -69.7539 -69.7507 -69.7504 -69.7504 -69.7485 -69.7343 -69.7326 -45.4494
   -36.1590 -36.1531 -36.1448 -36.1196 -36.1170 -36.1062 -36.1062 -36.0990
   -36.0968 -36.0921 -36.0876 -36.0575 -36.0378 -36.0366 -36.0314 -35.9870
   -35.9811 -35.9753 -35.9731 -35.9684 -35.9590 -35.9299 -35.9297 -35.9111
   -35.9086 -35.9084 -35.9077 -35.9058 -35.8866 -35.8857 -35.8822 -35.8688
   -35.8683 -35.8579 -35.8462 -35.8303 -35.8259 -35.8236 -35.8173 -35.8134
   -35.8110 -35.7999 -35.7990 -35.7887 -35.7857 -19.4119 -19.4115 -19.4111
    10.9375  11.0522  12.6025  12.7066  13.5004  13.5284  13.5443  13.6261
    13.6682  13.6784  13.6882  13.8007  13.8042  13.8673  13.9010  13.9029
    13.9455  13.9860  14.5715  14.5956  14.6413  14.6708  14.8390  14.8519
    14.8739  14.8899  14.8993  14.9988  15.0425  15.0820  15.3974  15.4061
    15.4180  15.4185  15.4325  15.4739  15.5177  15.5600  15.5792  15.5874
    15.6218  15.6275  15.6404  15.6991  15.7380  15.8904  16.4093  16.4696
    16.4896  16.5112  16.5967  16.6053  16.6848  16.6925  16.7048  16.7391
    16.8017  16.8049  16.8355  16.9375  16.9604  16.9925  17.0238  17.0280
    17.0441  17.0898  17.1260  17.1842  17.1894  17.1974  17.2281  17.3053
    17.3631  17.4242  17.4527  17.6085  17.6692  18.0636  18.0852  18.2077
    18.6496  18.7808  18.8145  19.0322  19.5504  19.5639  19.8314  20.1642

     occupation numbers 
     1.0000   1.0000   1.0000   1.0000   1.0000   1.0000   1.0000   1.0000
     1.0000   1.0000   1.0000   1.0000   1.0000   1.0000   1.0000   1.0000
     1.0000   1.0000   1.0000   1.0000   1.0000   1.0000   1.0000   1.0000
     1.0000   1.0000   1.0000   1.0000   1.0000   1.0000   1.0000   1.0000
     1.0000   1.0000   1.0000   1.0000   1.0000   1.0000   1.0000   1.0000
     1.0000   1.0000   1.0000   1.0000   1.0000   1.0000   1.0000   1.0000
     1.0000   1.0000   1.0000   1.0000   1.0000   1.0000   1.0000   1.0000
     1.0000   1.0000   1.0000   1.0000   1.0000   1.0000   1.0000   1.0000
     1.0000   1.0000   1.0000   1.0000   1.0000   1.0000   1.0000   1.0000
     1.0000   1.0000   1.0000   1.0000   1.0000   1.0000   1.0000   1.0000
     1.0000   1.0000   1.0000   1.0000   1.0000   1.0000   1.0000   1.0000
     1.0000   1.0000   1.0000   1.0000   1.0000   1.0000   1.0000   1.0000
     1.0000   1.0000   1.0000   1.0000   1.0000   1.0000   1.0000   1.0000
     1.0000   1.0000   1.0000   1.0000   1.0000   1.0000   1.0045   1.0068
     1.0077   1.0089   1.0148   1.0156   1.0237   1.0247   1.0262   1.0307
     1.0401   1.0406   1.0456   1.0631   1.0669   1.0718   1.0761   1.0766
     1.0784   1.0822   1.0833   1.0804   1.0799   1.0789   1.0736   1.0499
     1.0210   0.9792   0.9558   0.7881   0.7091   0.2191   0.2001   0.1134
     0.0066   0.0022   0.0017   0.0002   0.0000   0.0000   0.0000   0.0000

          k = 0.0000-0.5000-0.5000 (  9748 PWs)   bands (ev):

   -69.8960 -69.8245 -69.8245 -69.8210 -69.7902 -69.7840 -69.7840 -69.7522
   -69.7521 -69.7521 -69.7521 -69.7460 -69.7411 -69.7369 -69.7369 -45.4494
   -36.1565 -36.1375 -36.1375 -36.1215 -36.1210 -36.1053 -36.1053 -36.1042
   -36.1033 -36.1028 -36.1028 -36.0524 -36.0297 -35.9880 -35.9880 -35.9875
   -35.9835 -35.9704 -35.9704 -35.9666 -35.9626 -35.9315 -35.9315 -35.9224
   -35.9223 -35.9220 -35.9202 -35.9202 -35.9200 -35.9128 -35.8897 -35.8897
   -35.8679 -35.8430 -35.8430 -35.8322 -35.8226 -35.8214 -35.8182 -35.8095
   -35.8095 -35.7902 -35.7902 -35.7765 -35.7740 -19.4118 -19.4118 -19.4110
    11.6636  11.6981  11.6981  11.9088  13.7453  13.7513  13.7513  13.8965
    13.9011  13.9044  13.9103  13.9103  13.9253  13.9412  13.9412  14.1141
    14.2583  14.2822  14.2822  14.3835  14.5986  14.6184  14.6360  14.6631
    14.6631  14.6968  14.6968  14.9021  15.1100  15.1185  15.2130  15.2130
    15.2469  15.2469  15.2512  15.2967  15.2986  15.2986  15.3665  15.3995
    15.5141  15.5141  15.5935  15.8390  16.0364  16.0427  16.2052  16.2052
    16.6330  16.6330  16.6436  16.6787  16.7188  16.7188  16.8133  16.8275
    16.8275  16.8409  16.8414  16.8598  16.8598  16.8653  16.8816  16.9095
    16.9105  16.9319  16.9449  16.9449  17.0776  17.1467  17.1467  17.2642
    17.2642  17.2787  17.2908  17.5333  17.5333  18.0411  18.2136  18.2141
    19.0071  19.0073  19.0616  19.1277  20.1824  20.2276  20.2276  20.3602

     occupation numbers 
     1.0000   1.0000   1.0000   1.0000   1.0000   1.0000   1.0000   1.0000
     1.0000   1.0000   1.0000   1.0000   1.0000   1.0000   1.0000   1.0000
     1.0000   1.0000   1.0000   1.0000   1.0000   1.0000   1.0000   1.0000
     1.0000   1.0000   1.0000   1.0000   1.0000   1.0000   1.0000   1.0000
     1.0000   1.0000   1.0000   1.0000   1.0000   1.0000   1.0000   1.0000
     1.0000   1.0000   1.0000   1.0000   1.0000   1.0000   1.0000   1.0000
     1.0000   1.0000   1.0000   1.0000   1.0000   1.0000   1.0000   1.0000
     1.0000   1.0000   1.0000   1.0000   1.0000   1.0000   1.0000   1.0000
     1.0000   1.0000   1.0000   1.0000   1.0000   1.0000   1.0000   1.0000
     1.0000   1.0000   1.0000   1.0000   1.0000   1.0000   1.0000   1.0000
     1.0000   1.0000   1.0000   1.0000   1.0000   1.0000   1.0000   1.0000
     1.0000   1.0000   1.0000   1.0000   1.0000   1.0000   1.0000   1.0000
     1.0000   1.0000   1.0000   1.0000   1.0000   1.0000   1.0000   1.0000
     1.0000   1.0000   1.0000   1.0000   1.0002   1.0002   1.0009   1.0009
     1.0182   1.0182   1.0192   1.0230   1.0280   1.0280   1.0420   1.0443
     1.0443   1.0465   1.0466   1.0498   1.0498   1.0507   1.0535   1.0583
     1.0585   1.0622   1.0643   1.0643   1.0814   1.0830   1.0830   1.0646
     1.0646   1.0599   1.0556   0.8767   0.8767   0.2400   0.1101   0.1098
     0.0003   0.0003   0.0001   0.0001   0.0000   0.0000   0.0000   0.0000

          k = 0.2500 0.2500 0.2500 (  9762 PWs)   bands (ev):

   -69.8965 -69.8320 -69.8190 -69.8190 -69.7892 -69.7823 -69.7823 -69.7531
   -69.7517 -69.7512 -69.7512 -69.7490 -69.7452 -69.7452 -69.7271 -45.4494
   -36.1581 -36.1581 -36.1529 -36.1411 -36.1189 -36.1189 -36.0881 -36.0845
   -36.0845 -36.0784 -36.0784 -36.0602 -36.0303 -36.0303 -36.0123 -35.9941
   -35.9941 -35.9822 -35.9793 -35.9793 -35.9790 -35.9283 -35.9283 -35.9276
   -35.9056 -35.8977 -35.8977 -35.8877 -35.8877 -35.8825 -35.8727 -35.8727
   -35.8708 -35.8618 -35.8531 -35.8531 -35.8344 -35.8253 -35.8114 -35.8114
   -35.8021 -35.8021 -35.7873 -35.7873 -35.7859 -19.4114 -19.4114 -19.4114
    10.4182  12.4112  12.4112  12.5285  13.1841  13.1841  13.2638  13.5569
    13.5569  13.6097  13.6097  13.6316  14.0066  14.0066  14.0402  14.2624
    14.3098  14.3827  14.3827  14.5879  14.5879  14.6915  14.7158  14.7486
    14.7486  14.8860  14.8860  14.9396  14.9869  14.9869  15.1441  15.2497
    15.2497  15.3839  15.3839  15.5121  15.5121  15.5389  15.5529  15.6531
    15.6531  15.7802  15.8843  15.8843  15.9765  15.9765  16.1143  16.3841
    16.3909  16.4638  16.4638  16.7267  16.7770  16.7770  16.7919  16.8469
    16.8469  16.8640  16.8640  16.8761  16.9653  16.9653  17.0297  17.0297
    17.0367  17.0593  17.1168  17.1168  17.1772  17.1966  17.1966  17.4345
    17.4640  17.4640  17.6798  17.6798  17.8236  17.8236  17.8387  18.3124
    18.3689  18.3689  19.1666  19.1667  19.2737  19.5924  19.5925  20.8463

     occupation numbers 
     1.0000   1.0000   1.0000   1.0000   1.0000   1.0000   1.0000   1.0000
     1.0000   1.0000   1.0000   1.0000   1.0000   1.0000   1.0000   1.0000
     1.0000   1.0000   1.0000   1.0000   1.0000   1.0000   1.0000   1.0000
     1.0000   1.0000   1.0000   1.0000   1.0000   1.0000   1.0000   1.0000
     1.0000   1.0000   1.0000   1.0000   1.0000   1.0000   1.0000   1.0000
     1.0000   1.0000   1.0000   1.0000   1.0000   1.0000   1.0000   1.0000
     1.0000   1.0000   1.0000   1.0000   1.0000   1.0000   1.0000   1.0000
     1.0000   1.0000   1.0000   1.0000   1.0000   1.0000   1.0000   1.0000
     1.0000   1.0000   1.0000   1.0000   1.0000   1.0000   1.0000   1.0000
     1.0000   1.0000   1.0000   1.0000   1.0000   1.0000   1.0000   1.0000
     1.0000   1.0000   1.0000   1.0000   1.0000   1.0000   1.0000   1.0000
     1.0000   1.0000   1.0000   1.0000   1.0000   1.0000   1.0000   1.0000
     1.0000   1.0000   1.0000   1.0000   1.0000   1.0000   1.0000   1.0000
     1.0000   1.0000   1.0000   1.0000   1.0001   1.0001   1.0004   1.0037
     1.0039   1.0065   1.0065   1.0290   1.0362   1.0362   1.0386   1.0476
     1.0476   1.0505   1.0505   1.0526   1.0677   1.0677   1.0768   1.0768
     1.0776   1.0800   1.0832   1.0832   1.0811   1.0790   1.0790   0.9711
     0.9459   0.9459   0.6947   0.6947   0.4970   0.4970   0.4768   0.0648
     0.0465   0.0465   0.0000   0.0000   0.0000   0.0000   0.0000   0.0000

          k = 0.2500 0.2500-0.5000 (  9786 PWs)   bands (ev):

   -69.8961 -69.8265 -69.8249 -69.8184 -69.7900 -69.7849 -69.7835 -69.7533
   -69.7514 -69.7505 -69.7501 -69.7495 -69.7454 -69.7357 -69.7342 -45.4494
   -36.1518 -36.1481 -36.1403 -36.1160 -36.1089 -36.1086 -36.1049 -36.0917
   -36.0896 -36.0866 -36.0725 -36.0528 -36.0482 -36.0427 -36.0413 -36.0033
   -35.9960 -35.9919 -35.9890 -35.9691 -35.9673 -35.9315 -35.9285 -35.9201
   -35.9167 -35.9097 -35.9017 -35.8874 -35.8865 -35.8795 -35.8659 -35.8635
   -35.8574 -35.8525 -35.8491 -35.8461 -35.8332 -35.8223 -35.8142 -35.8122
   -35.8086 -35.7972 -35.7925 -35.7916 -35.7902 -19.4118 -19.4115 -19.4114
    11.2141  11.3292  12.8587  12.8601  12.8911  13.0380  13.8339  13.8414
    13.8632  13.8712  13.8755  13.8848  13.8891  13.9316  13.9965  14.0137
    14.0456  14.1131  14.5989  14.6756  14.6769  14.7162  14.7318  14.7489
    14.7625  14.9006  14.9212  14.9218  14.9529  15.0149  15.1939  15.2344
    15.2677  15.2773  15.2819  15.3020  15.3190  15.3208  15.3263  15.3499
    15.3510  15.4182  15.4446  15.5224  15.6037  15.6528  16.2281  16.2650
    16.6055  16.6434  16.6960  16.7144  16.7156  16.7185  16.7215  16.7745
    16.8198  16.8291  16.8387  16.9548  16.9680  16.9878  16.9962  17.0370
    17.0775  17.0779  17.1038  17.1190  17.1978  17.2331  17.2566  17.2981
    17.3258  17.5636  17.7894  17.8156  17.8583  17.8784  17.9213  17.9440
    17.9532  18.6186  19.0224  19.3125  19.3822  19.3966  20.2619  20.4157

     occupation numbers 
     1.0000   1.0000   1.0000   1.0000   1.0000   1.0000   1.0000   1.0000
     1.0000   1.0000   1.0000   1.0000   1.0000   1.0000   1.0000   1.0000
     1.0000   1.0000   1.0000   1.0000   1.0000   1.0000   1.0000   1.0000
     1.0000   1.0000   1.0000   1.0000   1.0000   1.0000   1.0000   1.0000
     1.0000   1.0000   1.0000   1.0000   1.0000   1.0000   1.0000   1.0000
     1.0000   1.0000   1.0000   1.0000   1.0000   1.0000   1.0000   1.0000
     1.0000   1.0000   1.0000   1.0000   1.0000   1.0000   1.0000   1.0000
     1.0000   1.0000   1.0000   1.0000   1.0000   1.0000   1.0000   1.0000
     1.0000   1.0000   1.0000   1.0000   1.0000   1.0000   1.0000   1.0000
     1.0000   1.0000   1.0000   1.0000   1.0000   1.0000   1.0000   1.0000
     1.0000   1.0000   1.0000   1.0000   1.0000   1.0000   1.0000   1.0000
     1.0000   1.0000   1.0000   1.0000   1.0000   1.0000   1.0000   1.0000
     1.0000   1.0000   1.0000   1.0000   1.0000   1.0000   1.0000   1.0000
     1.0000   1.0000   1.0000   1.0000   1.0000   1.0000   1.0011   1.0015
     1.0156   1.0192   1.0251   1.0274   1.0276   1.0279   1.0283   1.0359
     1.0430   1.0446   1.0462   1.0660   1.0681   1.0711   1.0724   1.0777
     1.0814   1.0815   1.0829   1.0833   1.0788   1.0726   1.0667   1.0529
     1.0408   0.8425   0.5437   0.5079   0.4508   0.4246   0.3709   0.3438
     0.3330   0.0084   0.0002   0.0000   0.0000   0.0000   0.0000   0.0000

          k = 0.2500-0.5000-0.5000 (  9780 PWs)   bands (ev):

   -69.8958 -69.8234 -69.8234 -69.8216 -69.7900 -69.7869 -69.7869 -69.7536
   -69.7516 -69.7496 -69.7496 -69.7462 -69.7401 -69.7378 -69.7378 -45.4495
   -36.1469 -36.1347 -36.1347 -36.1081 -36.1081 -36.0990 -36.0990 -36.0906
   -36.0901 -36.0847 -36.0847 -36.0527 -36.0520 -36.0160 -36.0160 -36.0138
   -36.0103 -36.0082 -36.0023 -36.0015 -36.0015 -35.9350 -35.9339 -35.9339
   -35.9025 -35.8843 -35.8843 -35.8826 -35.8821 -35.8821 -35.8765 -35.8757
   -35.8635 -35.8385 -35.8385 -35.8352 -35.8323 -35.8219 -35.8189 -35.8148
   -35.8148 -35.7989 -35.7989 -35.7886 -35.7858 -19.4118 -19.4118 -19.4114
    11.9412  11.9736  11.9736  12.1808  13.4596  13.4935  13.4935  13.6779
    13.9413  13.9465  13.9465  14.0919  14.2805  14.2919  14.2919  14.2996
    14.3266  14.3266  14.3794  14.3935  14.5207  14.5633  14.5633  14.6349
    14.7498  14.7908  14.7908  14.9014  14.9499  14.9499  14.9581  14.9984
    15.0557  15.0711  15.0735  15.0735  15.1471  15.1502  15.1502  15.1914
    15.2882  15.2882  15.3192  15.4409  15.5756  15.7279  15.7279  15.7336
    16.7625  16.7625  16.7764  16.8275  16.8522  16.8522  16.8610  16.8887
    16.9196  16.9334  16.9334  16.9917  16.9946  17.0225  17.0225  17.0378
    17.0499  17.0579  17.0579  17.1299  17.1299  17.1814  17.2828  17.3452
    17.3680  17.3898  17.3898  17.6020  17.6020  17.8821  17.9285  18.1523
    18.5147  18.5147  18.8552  19.1851  19.4292  19.7079  19.7789  19.7789

     occupation numbers 
     1.0000   1.0000   1.0000   1.0000   1.0000   1.0000   1.0000   1.0000
     1.0000   1.0000   1.0000   1.0000   1.0000   1.0000   1.0000   1.0000
     1.0000   1.0000   1.0000   1.0000   1.0000   1.0000   1.0000   1.0000
     1.0000   1.0000   1.0000   1.0000   1.0000   1.0000   1.0000   1.0000
     1.0000   1.0000   1.0000   1.0000   1.0000   1.0000   1.0000   1.0000
     1.0000   1.0000   1.0000   1.0000   1.0000   1.0000   1.0000   1.0000
     1.0000   1.0000   1.0000   1.0000   1.0000   1.0000   1.0000   1.0000
     1.0000   1.0000   1.0000   1.0000   1.0000   1.0000   1.0000   1.0000
     1.0000   1.0000   1.0000   1.0000   1.0000   1.0000   1.0000   1.0000
     1.0000   1.0000   1.0000   1.0000   1.0000   1.0000   1.0000   1.0000
     1.0000   1.0000   1.0000   1.0000   1.0000   1.0000   1.0000   1.0000
     1.0000   1.0000   1.0000   1.0000   1.0000   1.0000   1.0000   1.0000
     1.0000   1.0000   1.0000   1.0000   1.0000   1.0000   1.0000   1.0000
     1.0000   1.0000   1.0000   1.0000   1.0000   1.0000   1.0000   1.0000
     1.0341   1.0341   1.0362   1.0443   1.0485   1.0485   1.0500   1.0547
     1.0601   1.0624   1.0624   1.0717   1.0721   1.0759   1.0759   1.0777
     1.0790   1.0798   1.0798   1.0833   1.0833   1.0807   1.0585   1.0311
     1.0181   1.0042   1.0042   0.7963   0.7963   0.4199   0.3622   0.1483
     0.0180   0.0180   0.0011   0.0000   0.0000   0.0000   0.0000   0.0000

          k =-0.5000-0.5000-0.5000 (  9808 PWs)   bands (ev):

   -69.8955 -69.8221 -69.8221 -69.8221 -69.7895 -69.7895 -69.7895 -69.7548
   -69.7509 -69.7468 -69.7468 -69.7468 -69.7395 -69.7395 -69.7395 -45.4495
   -36.1319 -36.1319 -36.1319 -36.0827 -36.0827 -36.0772 -36.0772 -36.0772
   -36.0621 -36.0621 -36.0597 -36.0597 -36.0597 -36.0586 -36.0533 -36.0533
   -36.0533 -36.0367 -36.0319 -36.0319 -36.0319 -35.9381 -35.9381 -35.9381
   -35.8766 -35.8766 -35.8766 -35.8710 -35.8558 -35.8496 -35.8496 -35.8496
   -35.8325 -35.8325 -35.8296 -35.8296 -35.8296 -35.8293 -35.8293 -35.8293
   -35.8184 -35.8184 -35.8116 -35.8116 -35.8116 -19.4119 -19.4119 -19.4119
    12.6628  12.6846  12.6846  12.6846  12.7231  12.7231  12.7231  13.1518
    14.3929  14.3929  14.4038  14.4038  14.4038  14.4134  14.4134  14.4134
    14.4164  14.4164  14.4164  14.4628  14.4628  14.4628  14.6825  14.6825
    14.8632  14.8632  14.8632  14.8910  14.8910  14.8910  14.8952  14.8952
    14.8952  14.9059  14.9059  14.9059  14.9068  14.9068  14.9068  14.9185
    14.9185  14.9209  14.9953  15.0301  15.0301  15.3990  15.3990  15.3990
    16.8717  16.8717  16.8899  16.8899  16.8899  16.8926  16.8926  16.8926
    16.9098  16.9098  16.9098  16.9226  16.9226  16.9226  17.2885  17.2885
    17.3692  17.3692  17.3692  17.3822  17.3822  17.3822  17.4088  17.4088
    17.4092  17.4092  17.4092  17.7275  17.7275  17.7275  17.9888  18.0172
    18.0172  18.0172  18.0359  19.2638  19.2638  19.5408  19.5408  19.5408

     occupation numbers 
     1.0000   1.0000   1.0000   1.0000   1.0000   1.0000   1.0000   1.0000
     1.0000   1.0000   1.0000   1.0000   1.0000   1.0000   1.0000   1.0000
     1.0000   1.0000   1.0000   1.0000   1.0000   1.0000   1.0000   1.0000
     1.0000   1.0000   1.0000   1.0000   1.0000   1.0000   1.0000   1.0000
     1.0000   1.0000   1.0000   1.0000   1.0000   1.0000   1.0000   1.0000
     1.0000   1.0000   1.0000   1.0000   1.0000   1.0000   1.0000   1.0000
     1.0000   1.0000   1.0000   1.0000   1.0000   1.0000   1.0000   1.0000
     1.0000   1.0000   1.0000   1.0000   1.0000   1.0000   1.0000   1.0000
     1.0000   1.0000   1.0000   1.0000   1.0000   1.0000   1.0000   1.0000
     1.0000   1.0000   1.0000   1.0000   1.0000   1.0000   1.0000   1.0000
     1.0000   1.0000   1.0000   1.0000   1.0000   1.0000   1.0000   1.0000
     1.0000   1.0000   1.0000   1.0000   1.0000   1.0000   1.0000   1.0000
     1.0000   1.0000   1.0000   1.0000   1.0000   1.0000   1.0000   1.0000
     1.0000   1.0000   1.0000   1.0000   1.0000   1.0000   1.0000   1.0000
     1.0518   1.0518   1.0550   1.0550   1.0550   1.0554   1.0554   1.0554
     1.0584   1.0584   1.0584   1.0606   1.0606   1.0606   1.0565   1.0565
     1.0173   1.0173   1.0173   1.0092   1.0092   1.0092   0.9909   0.9909
     0.9906   0.9906   0.9906   0.6294   0.6294   0.6294   0.2933   0.2635
     0.2635   0.2635   0.2450   0.0000   0.0000   0.0000   0.0000   0.0000

 ------ SPIN DOWN ----------


          k = 0.0000 0.0000 0.0000 (  9795 PWs)   bands (ev):

   -67.3114 -67.2551 -67.2551 -67.2510 -67.2510 -67.2510 -67.2454 -67.2454
   -67.2454 -67.2396 -67.2271 -67.1941 -67.1941 -67.1691 -66.9461 -46.5386
   -33.7195 -33.7195 -33.7195 -33.6983 -33.6983 -33.6983 -33.5706 -33.5706
   -33.5706 -33.5369 -33.5264 -33.5264 -33.5179 -33.5179 -33.5179 -33.5054
   -33.5054 -33.5054 -33.4809 -33.4809 -33.4809 -33.4584 -33.4584 -33.4584
   -33.4567 -33.4509 -33.4509 -33.4509 -33.4446 -33.4446 -33.4153 -33.4153
   -33.4153 -33.3717 -33.3717 -33.3717 -33.2900 -33.2900 -33.2900 -33.2793
   -33.2793 -33.2793 -33.1544 -33.1544 -33.1544 -20.4953 -20.4953 -20.4953
     9.6541  13.7088  13.7088  13.8463  13.8463  13.8463  13.9263  14.1506
    14.1506  14.1506  14.1792  14.1792  14.3999  14.8161  14.8161  15.9516
    15.9516  15.9516  16.0938  16.0938  16.0938  16.2345  16.2345  16.2345
    16.2355  16.2355  16.2355  16.9884  16.9884  17.0699  17.0699  17.0699
    17.1612  17.4991  17.4991  17.4991  17.8637  17.8637  17.8637  17.8826
    17.8826  17.8826  17.8903  17.8903  17.8903  17.9363  17.9363  17.9363
    18.4687  18.4687  18.4687  18.5836  18.5836  18.5836  18.7874  18.7904
    18.7904  18.8876  18.8878  18.8881  19.3751  19.3850  19.3851  19.3854
    19.4219  19.4219  19.5205  19.5205  19.7445  19.7445  19.7445  19.7926
    19.7926  19.8165  19.8488  19.8488  19.8859  19.8859  20.2339  20.2352
    20.3886  20.3886  20.4707  20.4846  20.4846  20.4846  20.5360  20.5360

     occupation numbers 
     1.0000   1.0000   1.0000   1.0000   1.0000   1.0000   1.0000   1.0000
     1.0000   1.0000   1.0000   1.0000   1.0000   1.0000   1.0000   1.0000
     1.0000   1.0000   1.0000   1.0000   1.0000   1.0000   1.0000   1.0000
     1.0000   1.0000   1.0000   1.0000   1.0000   1.0000   1.0000   1.0000
     1.0000   1.0000   1.0000   1.0000   1.0000   1.0000   1.0000   1.0000
     1.0000   1.0000   1.0000   1.0000   1.0000   1.0000   1.0000   1.0000
     1.0000   1.0000   1.0000   1.0000   1.0000   1.0000   1.0000   1.0000
     1.0000   1.0000   1.0000   1.0000   1.0000   1.0000   1.0000   1.0000
     1.0000   1.0000   1.0000   1.0000   1.0000   1.0000   1.0000   1.0000
     1.0000   1.0000   1.0000   1.0000   1.0000   1.0000   1.0000   1.0001
     1.0001   1.0001   1.0003   1.0003   1.0003   1.0012   1.0012   1.0012
     1.0012   1.0012   1.0012   1.0712   1.0712   1.0809   1.0809   1.0809
     1.0823   0.9125   0.9125   0.9125   0.4437   0.4437   0.4437   0.4192
     0.4192   0.4192   0.4094   0.4094   0.4094   0.3528   0.3528   0.3528
     0.0247   0.0247   0.0247   0.0110   0.0110   0.0110   0.0021   0.0021
     0.0021   0.0008   0.0008   0.0008   0.0000   0.0000   0.0000   0.0000
     0.0000   0.0000   0.0000   0.0000   0.0000   0.0000   0.0000   0.0000
     0.0000   0.0000   0.0000   0.0000   0.0000   0.0000   0.0000   0.0000
     0.0000   0.0000   0.0000   0.0000   0.0000   0.0000   0.0000   0.0000

          k = 0.0000 0.0000 0.2500 (  9807 PWs)   bands (ev):

   -67.3060 -67.2720 -67.2550 -67.2502 -67.2502 -67.2461 -67.2461 -67.2447
   -67.2412 -67.2407 -67.2263 -67.1941 -67.1902 -67.1722 -66.9461 -46.5386
   -33.7006 -33.7006 -33.6995 -33.6860 -33.6821 -33.6821 -33.5842 -33.5842
   -33.5791 -33.5726 -33.5706 -33.5614 -33.5614 -33.5516 -33.5516 -33.5494
   -33.5082 -33.4902 -33.4902 -33.4626 -33.4625 -33.4574 -33.4500 -33.4499
   -33.4463 -33.4455 -33.4365 -33.4365 -33.4008 -33.4008 -33.3894 -33.3894
   -33.3781 -33.3776 -33.3683 -33.3683 -33.3080 -33.3008 -33.3008 -33.2931
   -33.2931 -33.2903 -33.1553 -33.1543 -33.1543 -20.4957 -20.4953 -20.4953
     9.9781  12.2998  13.8374  13.9709  13.9709  14.0137  14.2029  14.2029
    14.2144  14.3047  14.3799  14.4976  14.8407  14.9739  14.9848  15.6870
    15.7885  15.9187  15.9187  16.1600  16.1600  16.1671  16.3439  16.3468
    16.3468  16.3854  16.4337  16.4337  16.7662  16.8436  16.8436  16.8815
    17.4119  17.4119  17.4175  17.4279  17.4967  17.4967  17.6078  17.6078
    17.6175  17.7340  17.7417  17.7417  17.7718  17.9104  17.9104  17.9780
    18.2809  18.2822  18.3030  18.3030  18.3170  18.4373  18.4373  19.2551
    19.2567  19.2572  19.2590  19.2819  19.2861  19.3348  19.3456  19.3457
    19.3879  19.4407  19.4676  19.5971  19.7281  19.7514  19.7859  19.7947
    19.8398  19.8806  19.9002  19.9009  20.0322  20.1230  20.1895  20.2881
    20.3295  20.4133  20.4141  20.4189  20.4195  20.5123  20.5232  20.5489

     occupation numbers 
     1.0000   1.0000   1.0000   1.0000   1.0000   1.0000   1.0000   1.0000
     1.0000   1.0000   1.0000   1.0000   1.0000   1.0000   1.0000   1.0000
     1.0000   1.0000   1.0000   1.0000   1.0000   1.0000   1.0000   1.0000
     1.0000   1.0000   1.0000   1.0000   1.0000   1.0000   1.0000   1.0000
     1.0000   1.0000   1.0000   1.0000   1.0000   1.0000   1.0000   1.0000
     1.0000   1.0000   1.0000   1.0000   1.0000   1.0000   1.0000   1.0000
     1.0000   1.0000   1.0000   1.0000   1.0000   1.0000   1.0000   1.0000
     1.0000   1.0000   1.0000   1.0000   1.0000   1.0000   1.0000   1.0000
     1.0000   1.0000   1.0000   1.0000   1.0000   1.0000   1.0000   1.0000
     1.0000   1.0000   1.0000   1.0000   1.0000   1.0000   1.0000   1.0000
     1.0000   1.0001   1.0001   1.0006   1.0006   1.0006   1.0028   1.0028
     1.0028   1.0038   1.0053   1.0053   1.0346   1.0470   1.0470   1.0535
     0.9886   0.9886   0.9844   0.9764   0.9149   0.9149   0.7890   0.7890
     0.7768   0.6204   0.6097   0.6097   0.5681   0.3842   0.3842   0.3051
     0.0772   0.0767   0.0683   0.0683   0.0631   0.0303   0.0303   0.0000
     0.0000   0.0000   0.0000   0.0000   0.0000   0.0000   0.0000   0.0000
     0.0000   0.0000   0.0000   0.0000   0.0000   0.0000   0.0000   0.0000
     0.0000   0.0000   0.0000   0.0000   0.0000   0.0000   0.0000   0.0000
     0.0000   0.0000   0.0000   0.0000   0.0000   0.0000   0.0000   0.0000

          k = 0.0000 0.0000-0.5000 (  9794 PWs)   bands (ev):

[...]
     1.0832   1.0832   1.0746   1.0742   1.0297   0.9980   0.0752   0.0712
     0.0094   0.0093   0.0081   0.0071   0.0008   0.0007   0.0006   0.0004
     0.0004   0.0004   0.0004   0.0003   0.0002   0.0002   0.0000   0.0000
     0.0000   0.0000   0.0000   0.0000   0.0000   0.0000   0.0000   0.0000
     0.0000   0.0000   0.0000   0.0000   0.0000   0.0000   0.0000   0.0000
     0.0000   0.0000   0.0000   0.0000   0.0000   0.0000   0.0000   0.0000

          k = 0.0000-0.5000-0.5000 (  9748 PWs)   bands (ev):

   -67.2822 -67.2822 -67.2779 -67.2622 -67.2453 -67.2453 -67.2453 -67.2453
   -67.2335 -67.2335 -67.2279 -67.1848 -67.1841 -67.1841 -66.9460 -46.5387
   -33.6851 -33.6687 -33.6598 -33.6500 -33.6500 -33.6460 -33.6410 -33.6375
   -33.6375 -33.6074 -33.5607 -33.5607 -33.5233 -33.5162 -33.5162 -33.5146
   -33.4991 -33.4991 -33.4896 -33.4896 -33.4886 -33.4858 -33.4820 -33.4820
   -33.4698 -33.4682 -33.4503 -33.4393 -33.4393 -33.4392 -33.3822 -33.3561
   -33.3561 -33.3345 -33.3341 -33.3261 -33.3234 -33.3234 -33.3005 -33.3005
   -33.2924 -33.2821 -33.1559 -33.1559 -33.1530 -20.4960 -20.4960 -20.4952
    11.9399  11.9901  11.9901  12.0729  14.7680  14.7680  14.8215  14.9319
    14.9319  14.9321  14.9363  14.9719  15.2685  15.3338  15.4059  15.4059
    15.5349  15.9374  15.9374  15.9577  16.1265  16.1265  16.1634  16.2018
    16.2488  16.2508  16.2696  16.2696  16.4552  16.6563  16.6655  16.6655
    16.6702  16.6702  16.7249  16.7383  16.8160  16.8160  16.8375  16.8569
    17.1560  17.1959  17.1959  17.2234  17.8265  17.8300  17.8300  17.8327
    18.5587  18.5587  18.6176  18.6331  18.8456  18.8466  18.8966  18.8966
    19.1561  19.1757  19.1757  19.1966  19.2124  19.2147  19.2183  19.2244
    19.2244  19.2643  19.2643  19.2949  19.5865  19.5865  19.6269  19.6564
    19.7680  19.7706  19.7706  19.7707  19.8045  19.8045  19.8659  19.9027
    20.3289  20.3458  20.4830  20.4832  21.8486  21.9684  21.9702  21.9927

     occupation numbers 
     1.0000   1.0000   1.0000   1.0000   1.0000   1.0000   1.0000   1.0000
     1.0000   1.0000   1.0000   1.0000   1.0000   1.0000   1.0000   1.0000
     1.0000   1.0000   1.0000   1.0000   1.0000   1.0000   1.0000   1.0000
     1.0000   1.0000   1.0000   1.0000   1.0000   1.0000   1.0000   1.0000
     1.0000   1.0000   1.0000   1.0000   1.0000   1.0000   1.0000   1.0000
     1.0000   1.0000   1.0000   1.0000   1.0000   1.0000   1.0000   1.0000
     1.0000   1.0000   1.0000   1.0000   1.0000   1.0000   1.0000   1.0000
     1.0000   1.0000   1.0000   1.0000   1.0000   1.0000   1.0000   1.0000
     1.0000   1.0000   1.0000   1.0000   1.0000   1.0000   1.0000   1.0000
     1.0000   1.0000   1.0000   1.0000   1.0000   1.0000   1.0000   1.0000
     1.0000   1.0001   1.0001   1.0001   1.0005   1.0005   1.0006   1.0009
     1.0013   1.0013   1.0015   1.0015   1.0062   1.0205   1.0215   1.0215
     1.0221   1.0221   1.0288   1.0306   1.0424   1.0424   1.0460   1.0493
     1.0826   1.0791   1.0791   1.0746   0.4931   0.4885   0.4885   0.4848
     0.0132   0.0132   0.0085   0.0075   0.0013   0.0012   0.0008   0.0008
     0.0001   0.0000   0.0000   0.0000   0.0000   0.0000   0.0000   0.0000
     0.0000   0.0000   0.0000   0.0000   0.0000   0.0000   0.0000   0.0000
     0.0000   0.0000   0.0000   0.0000   0.0000   0.0000   0.0000   0.0000
     0.0000   0.0000   0.0000   0.0000   0.0000   0.0000   0.0000   0.0000

          k = 0.2500 0.2500 0.2500 (  9762 PWs)   bands (ev):

   -67.2969 -67.2716 -67.2716 -67.2553 -67.2497 -67.2497 -67.2463 -67.2426
   -67.2350 -67.2350 -67.2260 -67.1889 -67.1889 -67.1766 -66.9461 -46.5387
   -33.6846 -33.6800 -33.6800 -33.6576 -33.6501 -33.6501 -33.6249 -33.6237
   -33.6237 -33.5755 -33.5755 -33.5583 -33.5583 -33.5557 -33.5424 -33.5285
   -33.5285 -33.5103 -33.5086 -33.4906 -33.4906 -33.4733 -33.4733 -33.4709
   -33.4331 -33.4189 -33.4189 -33.4055 -33.4055 -33.3935 -33.3865 -33.3865
   -33.3775 -33.3596 -33.3397 -33.3245 -33.3245 -33.3129 -33.3129 -33.3001
   -33.3001 -33.2940 -33.1549 -33.1546 -33.1546 -20.4956 -20.4956 -20.4956
    10.6026  12.7477  12.7477  12.8111  13.9675  13.9675  14.0900  14.7660
    14.7660  14.9139  15.0672  15.0672  15.2183  15.2608  15.2608  15.5190
    15.6529  15.9814  15.9814  16.0854  16.0854  16.1702  16.2459  16.2459
    16.3370  16.3516  16.3516  16.4559  16.4939  16.4939  16.9307  16.9307
    16.9382  17.0063  17.0395  17.0395  17.0451  17.0580  17.0580  17.0928
    17.0928  17.1544  17.2514  17.2514  17.4936  17.4936  17.5319  18.1641
    18.6625  18.6625  18.6684  18.6898  18.7125  18.7331  18.7331  19.1118
    19.1118  19.1183  19.1443  19.1972  19.1972  19.3677  19.3834  19.3834
    19.4214  19.4214  19.6668  19.6668  19.7245  19.7246  19.7250  19.7523
    19.7523  19.8054  19.8054  19.9101  19.9187  19.9468  19.9468  19.9717
    19.9717  20.0381  20.1362  20.1363  20.5973  20.5974  20.5997  22.1446

     occupation numbers 
     1.0000   1.0000   1.0000   1.0000   1.0000   1.0000   1.0000   1.0000
     1.0000   1.0000   1.0000   1.0000   1.0000   1.0000   1.0000   1.0000
     1.0000   1.0000   1.0000   1.0000   1.0000   1.0000   1.0000   1.0000
     1.0000   1.0000   1.0000   1.0000   1.0000   1.0000   1.0000   1.0000
     1.0000   1.0000   1.0000   1.0000   1.0000   1.0000   1.0000   1.0000
     1.0000   1.0000   1.0000   1.0000   1.0000   1.0000   1.0000   1.0000
     1.0000   1.0000   1.0000   1.0000   1.0000   1.0000   1.0000   1.0000
     1.0000   1.0000   1.0000   1.0000   1.0000   1.0000   1.0000   1.0000
     1.0000   1.0000   1.0000   1.0000   1.0000   1.0000   1.0000   1.0000
     1.0000   1.0000   1.0000   1.0000   1.0000   1.0000   1.0000   1.0000
     1.0000   1.0001   1.0001   1.0003   1.0003   1.0007   1.0013   1.0013
     1.0026   1.0029   1.0029   1.0062   1.0080   1.0080   1.0619   1.0619
     1.0632   1.0738   1.0779   1.0779   1.0785   1.0798   1.0798   1.0824
     1.0824   1.0827   1.0682   1.0682   0.9180   0.9180   0.8782   0.1403
     0.0060   0.0060   0.0057   0.0048   0.0040   0.0034   0.0034   0.0001
     0.0001   0.0001   0.0001   0.0000   0.0000   0.0000   0.0000   0.0000
     0.0000   0.0000   0.0000   0.0000   0.0000   0.0000   0.0000   0.0000
     0.0000   0.0000   0.0000   0.0000   0.0000   0.0000   0.0000   0.0000
     0.0000   0.0000   0.0000   0.0000   0.0000   0.0000   0.0000   0.0000

          k = 0.2500 0.2500-0.5000 (  9786 PWs)   bands (ev):

   -67.2872 -67.2838 -67.2696 -67.2548 -67.2535 -67.2513 -67.2451 -67.2449
   -67.2335 -67.2313 -67.2261 -67.1888 -67.1841 -67.1806 -66.9461 -46.5387
   -33.6725 -33.6653 -33.6564 -33.6521 -33.6476 -33.6423 -33.6293 -33.6287
   -33.6138 -33.5893 -33.5871 -33.5847 -33.5646 -33.5606 -33.5445 -33.5304
   -33.5249 -33.5115 -33.4977 -33.4976 -33.4966 -33.4890 -33.4781 -33.4771
   -33.4384 -33.4308 -33.4241 -33.4019 -33.3978 -33.3942 -33.3820 -33.3600
   -33.3582 -33.3555 -33.3361 -33.3272 -33.3242 -33.3213 -33.3085 -33.3057
   -33.3040 -33.2988 -33.1556 -33.1545 -33.1542 -20.4961 -20.4957 -20.4957
    11.4545  11.5088  13.3245  13.3411  13.3533  13.4686  14.6939  14.7461
    15.0123  15.1510  15.1727  15.1744  15.3101  15.4221  15.4297  15.4934
    15.5469  15.6466  16.0805  16.1314  16.1456  16.2190  16.2646  16.3618
    16.3694  16.3782  16.4431  16.4450  16.5265  16.5514  16.5940  16.6248
    16.6451  16.6802  16.8170  16.8509  16.8588  16.8762  16.9270  16.9555
    16.9721  16.9732  17.0670  17.0822  17.1072  17.1599  17.9186  17.9378
    18.6408  18.6431  18.8715  18.8926  18.8972  18.9117  19.0611  19.1027
    19.1120  19.1197  19.1244  19.1341  19.2819  19.2880  19.4175  19.4298
    19.5310  19.5472  19.6417  19.6443  19.7019  19.7024  19.7058  19.7166
    19.7205  19.7260  19.7776  19.8095  19.9809  19.9839  19.9841  19.9910
    19.9945  19.9992  20.0109  20.0626  20.0979  20.1571  21.6540  21.6885

     occupation numbers 
     1.0000   1.0000   1.0000   1.0000   1.0000   1.0000   1.0000   1.0000
     1.0000   1.0000   1.0000   1.0000   1.0000   1.0000   1.0000   1.0000
     1.0000   1.0000   1.0000   1.0000   1.0000   1.0000   1.0000   1.0000
     1.0000   1.0000   1.0000   1.0000   1.0000   1.0000   1.0000   1.0000
     1.0000   1.0000   1.0000   1.0000   1.0000   1.0000   1.0000   1.0000
     1.0000   1.0000   1.0000   1.0000   1.0000   1.0000   1.0000   1.0000
     1.0000   1.0000   1.0000   1.0000   1.0000   1.0000   1.0000   1.0000
     1.0000   1.0000   1.0000   1.0000   1.0000   1.0000   1.0000   1.0000
     1.0000   1.0000   1.0000   1.0000   1.0000   1.0000   1.0000   1.0000
     1.0000   1.0000   1.0000   1.0000   1.0000   1.0000   1.0000   1.0000
     1.0000   1.0000   1.0003   1.0005   1.0005   1.0010   1.0015   1.0032
     1.0034   1.0036   1.0057   1.0057   1.0098   1.0114   1.0146   1.0174
     1.0194   1.0232   1.0426   1.0482   1.0496   1.0526   1.0613   1.0661
     1.0687   1.0689   1.0806   1.0818   1.0830   1.0824   0.3742   0.3510
     0.0071   0.0070   0.0010   0.0008   0.0008   0.0007   0.0002   0.0001
     0.0001   0.0001   0.0001   0.0001   0.0000   0.0000   0.0000   0.0000
     0.0000   0.0000   0.0000   0.0000   0.0000   0.0000   0.0000   0.0000
     0.0000   0.0000   0.0000   0.0000   0.0000   0.0000   0.0000   0.0000
     0.0000   0.0000   0.0000   0.0000   0.0000   0.0000   0.0000   0.0000

          k = 0.2500-0.5000-0.5000 (  9780 PWs)   bands (ev):

   -67.2800 -67.2800 -67.2775 -67.2605 -67.2522 -67.2522 -67.2475 -67.2469
   -67.2290 -67.2290 -67.2269 -67.1845 -67.1841 -67.1841 -66.9461 -46.5387
   -33.6723 -33.6590 -33.6448 -33.6380 -33.6380 -33.6374 -33.6316 -33.6221
   -33.6221 -33.5974 -33.5523 -33.5520 -33.5520 -33.5479 -33.5479 -33.5445
   -33.5403 -33.5341 -33.5333 -33.5333 -33.5206 -33.4945 -33.4903 -33.4903
   -33.4326 -33.4172 -33.4038 -33.3999 -33.3999 -33.3937 -33.3815 -33.3525
   -33.3525 -33.3413 -33.3384 -33.3285 -33.3285 -33.3271 -33.3091 -33.3091
   -33.3036 -33.2954 -33.1550 -33.1550 -33.1536 -20.4961 -20.4961 -20.4957
    12.2209  12.2642  12.2642  12.3606  13.9973  13.9973  14.0292  14.1495
    15.2351  15.5220  15.5220  15.5244  15.5579  15.6081  15.6081  15.6366
    15.7026  15.9677  15.9677  15.9931  16.0818  16.1103  16.1103  16.1592
    16.3223  16.3282  16.3282  16.3442  16.3921  16.4838  16.4838  16.5239
    16.5889  16.6409  16.6409  16.6416  16.7264  16.7264  16.7555  16.7784
    16.8980  16.9401  16.9401  16.9657  17.2227  17.2227  17.2387  17.2621
    19.0491  19.0491  19.0876  19.1081  19.2122  19.2161  19.2161  19.2244
    19.2285  19.2540  19.2629  19.2746  19.2746  19.3026  19.3119  19.3119
    19.3442  19.3780  19.3780  19.3964  19.5614  19.5614  19.5955  19.6281
    19.7073  19.7073  19.7145  19.7307  19.7453  19.7453  19.7884  19.8323
    20.0281  20.0403  20.1413  20.1413  20.7595  20.8024  20.8026  20.8026

     occupation numbers 
     1.0000   1.0000   1.0000   1.0000   1.0000   1.0000   1.0000   1.0000
     1.0000   1.0000   1.0000   1.0000   1.0000   1.0000   1.0000   1.0000
     1.0000   1.0000   1.0000   1.0000   1.0000   1.0000   1.0000   1.0000
     1.0000   1.0000   1.0000   1.0000   1.0000   1.0000   1.0000   1.0000
     1.0000   1.0000   1.0000   1.0000   1.0000   1.0000   1.0000   1.0000
     1.0000   1.0000   1.0000   1.0000   1.0000   1.0000   1.0000   1.0000
     1.0000   1.0000   1.0000   1.0000   1.0000   1.0000   1.0000   1.0000
     1.0000   1.0000   1.0000   1.0000   1.0000   1.0000   1.0000   1.0000
     1.0000   1.0000   1.0000   1.0000   1.0000   1.0000   1.0000   1.0000
     1.0000   1.0000   1.0000   1.0000   1.0000   1.0000   1.0000   1.0000
     1.0000   1.0001   1.0001   1.0001   1.0003   1.0004   1.0004   1.0006
     1.0023   1.0025   1.0025   1.0028   1.0040   1.0074   1.0074   1.0096
     1.0142   1.0189   1.0189   1.0190   1.0290   1.0290   1.0331   1.0365
     1.0564   1.0635   1.0635   1.0677   1.0747   1.0747   1.0713   1.0652
     0.0002   0.0002   0.0001   0.0001   0.0000   0.0000   0.0000   0.0000
     0.0000   0.0000   0.0000   0.0000   0.0000   0.0000   0.0000   0.0000
     0.0000   0.0000   0.0000   0.0000   0.0000   0.0000   0.0000   0.0000
     0.0000   0.0000   0.0000   0.0000   0.0000   0.0000   0.0000   0.0000
     0.0000   0.0000   0.0000   0.0000   0.0000   0.0000   0.0000   0.0000

          k =-0.5000-0.5000-0.5000 (  9808 PWs)   bands (ev):

   -67.2767 -67.2767 -67.2767 -67.2579 -67.2579 -67.2579 -67.2502 -67.2483
   -67.2264 -67.2264 -67.2264 -67.1844 -67.1844 -67.1844 -66.9461 -46.5387
   -33.6514 -33.6514 -33.6235 -33.6081 -33.6081 -33.6081 -33.5970 -33.5970
   -33.5932 -33.5932 -33.5932 -33.5921 -33.5921 -33.5921 -33.5748 -33.5748
   -33.5748 -33.5732 -33.5359 -33.5359 -33.5359 -33.4977 -33.4977 -33.4977
   -33.4183 -33.3789 -33.3789 -33.3655 -33.3655 -33.3655 -33.3647 -33.3435
   -33.3435 -33.3435 -33.3420 -33.3420 -33.3420 -33.3272 -33.3272 -33.3219
   -33.3219 -33.3219 -33.1542 -33.1542 -33.1542 -20.4961 -20.4961 -20.4961
    12.9859  12.9859  12.9859  13.0073  13.0469  13.0469  13.0469  13.2563
    15.5831  15.5831  15.9249  15.9249  15.9249  16.0426  16.0426  16.0426
    16.0728  16.0728  16.0728  16.0766  16.0766  16.0986  16.0986  16.0986
    16.2788  16.2788  16.2788  16.4549  16.4549  16.4549  16.4860  16.5381
    16.5381  16.5381  16.5404  16.5404  16.5404  16.5573  16.5748  16.5748
    16.5877  16.5877  16.5877  16.5940  16.5940  16.6722  16.6722  16.6722
    19.4421  19.4421  19.4421  19.4700  19.4700  19.4700  19.4901  19.4901
    19.4901  19.4959  19.4959  19.4959  19.4983  19.4983  19.5148  19.5148
    19.5216  19.5216  19.5216  19.5416  19.5416  19.5416  19.5566  19.5567
    19.5838  19.5838  19.5838  19.6034  19.6034  19.6378  19.6378  19.6378
    19.9032  19.9340  19.9679  19.9679  19.9679  20.0477  20.0477  20.0477

     occupation numbers 
     1.0000   1.0000   1.0000   1.0000   1.0000   1.0000   1.0000   1.0000
     1.0000   1.0000   1.0000   1.0000   1.0000   1.0000   1.0000   1.0000
     1.0000   1.0000   1.0000   1.0000   1.0000   1.0000   1.0000   1.0000
     1.0000   1.0000   1.0000   1.0000   1.0000   1.0000   1.0000   1.0000
     1.0000   1.0000   1.0000   1.0000   1.0000   1.0000   1.0000   1.0000
     1.0000   1.0000   1.0000   1.0000   1.0000   1.0000   1.0000   1.0000
     1.0000   1.0000   1.0000   1.0000   1.0000   1.0000   1.0000   1.0000
     1.0000   1.0000   1.0000   1.0000   1.0000   1.0000   1.0000   1.0000
     1.0000   1.0000   1.0000   1.0000   1.0000   1.0000   1.0000   1.0000
     1.0000   1.0000   1.0001   1.0001   1.0001   1.0002   1.0002   1.0002
     1.0003   1.0003   1.0003   1.0003   1.0003   1.0003   1.0003   1.0003
     1.0017   1.0017   1.0017   1.0061   1.0061   1.0061   1.0076   1.0105
     1.0105   1.0105   1.0107   1.0107   1.0107   1.0118   1.0131   1.0131
     1.0141   1.0141   1.0141   1.0146   1.0146   1.0223   1.0223   1.0223
     0.0000   0.0000   0.0000   0.0000   0.0000   0.0000   0.0000   0.0000
     0.0000   0.0000   0.0000   0.0000   0.0000   0.0000   0.0000   0.0000
     0.0000   0.0000   0.0000   0.0000   0.0000   0.0000   0.0000   0.0000
     0.0000   0.0000   0.0000   0.0000   0.0000   0.0000   0.0000   0.0000
     0.0000   0.0000   0.0000   0.0000   0.0000   0.0000   0.0000   0.0000

     the Fermi energy is    17.8973 ev

!    total energy              =   -5115.56110071 Ry
     total all-electron energy =    -40045.075980 Ry
     estimated scf accuracy    <       0.00000728 Ry
     smearing contrib. (-TS)   =       0.13707994 Ry
     internal energy E=F+TS    =   -5115.69818064 Ry

     The total energy is F=E-TS. E is the sum of the following terms:
     one-electron contribution =   -1709.70425484 Ry
     hartree contribution      =    1010.98045134 Ry
     xc contribution           =    -431.45091710 Ry
     ewald contribution        =   -2706.74852666 Ry
     one-center paw contrib.   =   -1278.77493338 Ry
      -> PAW hartree energy AE =    1374.77662547 Ry
      -> PAW hartree energy PS =   -1365.03169663 Ry
      -> PAW xc energy AE      =    -841.33609280 Ry
      -> PAW xc energy PS      =     198.56731830 Ry
      -> total E_H with PAW    =    1020.72538017 Ry
      -> total E_XC with PAW   =   -1074.21969160 Ry

     total magnetization       =    30.83 Bohr mag/cell
     absolute magnetization    =    35.09 Bohr mag/cell

     convergence has been achieved in  17 iterations

     Writing all to output data dir ./tmp/vfe15_fim_debug/vfe15_fim_debug.save/ :
     XML data file, charge density, pseudopotentials, collected wavefunctions

     init_run     :     12.40s CPU     13.86s WALL (       1 calls)
     electrons    :   1064.38s CPU   1133.81s WALL (       1 calls)

     Called by init_run:
     wfcinit      :      8.60s CPU      9.56s WALL (       1 calls)
     wfcinit:atom :      0.05s CPU      0.06s WALL (      20 calls)
     wfcinit:wfcr :      7.86s CPU      8.81s WALL (      20 calls)
     potinit      :      2.63s CPU      3.03s WALL (       1 calls)
     hinit0       :      0.50s CPU      0.52s WALL (       1 calls)

     Called by electrons:
     c_bands      :    955.42s CPU   1016.57s WALL (      17 calls)
     sum_band     :     56.00s CPU     62.37s WALL (      17 calls)
     v_of_rho     :      2.87s CPU      3.24s WALL (      18 calls)
     v_h          :      0.07s CPU      0.10s WALL (      18 calls)
     v_xc         :      2.80s CPU      3.14s WALL (      18 calls)
     newd         :     10.49s CPU     11.55s WALL (      18 calls)
     PAW_pot      :     41.39s CPU     41.94s WALL (      18 calls)
     mix_rho      :      0.93s CPU      1.19s WALL (      17 calls)

     Called by c_bands:
     init_us_2    :      2.77s CPU      2.79s WALL (     700 calls)
     ccgdiagg     :    843.00s CPU    891.93s WALL (     340 calls)
     wfcrot       :    118.12s CPU    131.20s WALL (     340 calls)

     Called by sum_band:
     sum_band:wei :      0.05s CPU      0.05s WALL (      17 calls)
     sum_band:loo :     41.18s CPU     46.43s WALL (      17 calls)
     sum_band:buf :      0.35s CPU      0.39s WALL (     340 calls)
     sum_band:ini :      1.36s CPU      1.37s WALL (     340 calls)
     sum_band:cal :     11.64s CPU     12.09s WALL (     340 calls)
     sum_band:bec :      0.09s CPU      0.10s WALL (     340 calls)
     addusdens    :     14.39s CPU     15.38s WALL (      17 calls)
                                        0.00s GPU  (      17 calls)
     addusd:skk   :      0.09s CPU      0.12s WALL (      34 calls)
                                        0.00s GPU  (      34 calls)

     Called by *cgdiagg:
     h_psi        :    567.21s CPU    623.10s WALL (  126615 calls)
     s_psi        :    161.77s CPU    164.55s WALL (  252890 calls)

     Called by h_psi:
     h_psi:calbec :    115.60s CPU    126.77s WALL (  126615 calls)
     vloc_psi     :    256.36s CPU    298.44s WALL (  126615 calls)
     add_vuspsi   :    192.74s CPU    195.58s WALL (  126615 calls)
     hs_1psi      :    566.02s CPU    610.64s WALL (  126275 calls)
     s_1psi       :    149.18s CPU    151.58s WALL (  126275 calls)

     General routines
     calbec       :    203.65s CPU    216.88s WALL (  253230 calls)
     fft          :      1.45s CPU      2.01s WALL (     444 calls)
     ffts         :      0.55s CPU      0.70s WALL (     402 calls)
     fftw         :    231.39s CPU    273.77s WALL (  407910 calls)
     interpolate  :      0.31s CPU      0.40s WALL (      36 calls)

     Parallel routines

     PAW routines
     PAW_pot      :     41.39s CPU     41.94s WALL (      18 calls)
     PAW_symme    :      0.11s CPU      0.12s WALL (      35 calls)

     PWSCF        :  17m57.06s CPU  19m 8.53s WALL


   This run was terminated on:  12:28:13  17Mar2026            

=------------------------------------------------------------------------------=
   JOB DONE.
=------------------------------------------------------------------------------=
Note: The following floating-point exceptions are signalling: IEEE_DENORMAL
Note: The following floating-point exceptions are signalling: IEEE_DENORMAL
